
     Program PWSCF v.7.1 starts on 14Dec2022 at  6:29:25 

     This program is part of the open-source Quantum ESPRESSO suite
     for quantum simulation of materials; please cite
         "P. Giannozzi et al., J. Phys.:Condens. Matter 21 395502 (2009);
         "P. Giannozzi et al., J. Phys.:Condens. Matter 29 465901 (2017);
         "P. Giannozzi et al., J. Chem. Phys. 152 154105 (2020);
          URL http://www.quantum-espresso.org", 
     in publications or presentations arising from this work. More details at
     http://www.quantum-espresso.org/quote

     Parallel version (MPI), running on    14 processors

     MPI processes distributed on     1 nodes
     23415 MiB available memory on the printing compute node when the environment starts

     Reading input from pwband.in

     Current dimensions of program PWSCF are:
     Max number of different atomic species (ntypx) = 10
     Max number of k-points (npk) =  40000
     Max angular momentum in pseudopotentials (lmaxx) =  4

     Atomic positions and unit cell read from directory:
     ./out/AC_Ph_1.save/

     Message from routine setup:
     using ibrav=0 with symmetry is DISCOURAGED, use correct ibrav instead

     R & G space division:  proc/nbgrp/npool/nimage =      14
     Subspace diagonalization in iterative solution of the eigenvalue problem:
     a serial algorithm will be used


     Parallelization info
     --------------------
     sticks:   dense  smooth     PW     G-vecs:    dense   smooth      PW
     Min         261     130     36                11875     4192     622
     Max         262     131     38                11878     4195     623
     Sum        3657    1829    509               166269    58701    8709

     Using Slab Decomposition



     bravais-lattice index     =            0
     lattice parameter (alat)  =       9.7806  a.u.
     unit-cell volume          =     935.6060 (a.u.)^3
     number of atoms/cell      =           16
     number of atomic types    =            2
     number of electrons       =        32.00
     number of Kohn-Sham states=           20
     kinetic-energy cutoff     =      60.0000  Ry
     charge density cutoff     =     480.0000  Ry
     Exchange-correlation= PBE
                           (   1   4   3   4   0   0   0)

     celldm(1)=   9.780574  celldm(2)=   0.000000  celldm(3)=   0.000000
     celldm(4)=   0.000000  celldm(5)=   0.000000  celldm(6)=   0.000000

     crystal axes: (cart. coord. in units of alat)
               a(1) = (   1.000000   0.000000   0.000000 )  
               a(2) = (   0.000000   1.000000   0.000000 )  
               a(3) = (   0.000000   0.000000   1.000000 )  

     reciprocal axes: (cart. coord. in units 2 pi/alat)
               b(1) = (  1.000000  0.000000  0.000000 )  
               b(2) = (  0.000000  1.000000  0.000000 )  
               b(3) = (  0.000000  0.000000  1.000000 )  


     PseudoPot. # 1 for H  read from file:
     ./pseudo/H.pbe-rrkjus_psl.1.0.0.UPF
     MD5 check sum: 3f4114867bd07edc7f1424d066fc1888
     Pseudo is Ultrasoft, Zval =  1.0
     Generated using &quot;atomic&quot; code by A. Dal Corso  v.6.3MaX
     Using radial grid of  929 points,  2 beta functions with: 
                l(1) =   0
                l(2) =   0
     Q(r) pseudized with 0 coefficients 


     PseudoPot. # 2 for N  read from file:
     ./pseudo/N.pbe-n-rrkjus_psl.1.0.0.UPF
     MD5 check sum: ada94e3ed05223de5319d0572dc76806
     Pseudo is Ultrasoft + core correction, Zval =  5.0
     Generated using &quot;atomic&quot; code by A. Dal Corso  v.6.3MaX
     Using radial grid of 1085 points,  4 beta functions with: 
                l(1) =   0
                l(2) =   0
                l(3) =   1
                l(4) =   1
     Q(r) pseudized with 0 coefficients 


     atomic species   valence    mass     pseudopotential
        H              1.00     1.00794     H ( 1.00)
        N              5.00    14.00670     N ( 1.00)

     12 Sym. Ops. (no inversion) found ( 9 have fractional translation)


                                    s                        frac. trans.

      isym =  1     identity                                     

 cryst.   s( 1) = (     1          0          0      )
                  (     0          1          0      )
                  (     0          0          1      )

 cart.    s( 1) = (  1.0000000  0.0000000  0.0000000 )
                  (  0.0000000  1.0000000  0.0000000 )
                  (  0.0000000  0.0000000  1.0000000 )


      isym =  2     180 deg rotation - cart. axis [0,0,1]        

 cryst.   s( 2) = (    -1          0          0      )    f =(  0.5000000 )
                  (     0         -1          0      )       ( -0.0000000 )
                  (     0          0          1      )       ( -0.5000000 )

 cart.    s( 2) = ( -1.0000000  0.0000000  0.0000000 )    f =(  0.5000000 )
                  (  0.0000000 -1.0000000  0.0000000 )       ( -0.0000000 )
                  (  0.0000000  0.0000000  1.0000000 )       ( -0.5000000 )


      isym =  3     180 deg rotation - cart. axis [0,1,0]        

 cryst.   s( 3) = (    -1          0          0      )    f =( -0.0000000 )
                  (     0          1          0      )       ( -0.5000000 )
                  (     0          0         -1      )       (  0.5000000 )

 cart.    s( 3) = ( -1.0000000  0.0000000  0.0000000 )    f =( -0.0000000 )
                  (  0.0000000  1.0000000  0.0000000 )       ( -0.5000000 )
                  (  0.0000000  0.0000000 -1.0000000 )       (  0.5000000 )


      isym =  4     180 deg rotation - cart. axis [1,0,0]        

 cryst.   s( 4) = (     1          0          0      )    f =( -0.5000000 )
                  (     0         -1          0      )       (  0.5000000 )
                  (     0          0         -1      )       ( -0.0000000 )

 cart.    s( 4) = (  1.0000000  0.0000000  0.0000000 )    f =( -0.5000000 )
                  (  0.0000000 -1.0000000  0.0000000 )       (  0.5000000 )
                  (  0.0000000  0.0000000 -1.0000000 )       ( -0.0000000 )


      isym =  5     120 deg rotation - cart. axis [-1,-1,-1]     

 cryst.   s( 5) = (     0          0          1      )
                  (     1          0          0      )
                  (     0          1          0      )

 cart.    s( 5) = (  0.0000000  1.0000000  0.0000000 )
                  (  0.0000000  0.0000000  1.0000000 )
                  (  1.0000000  0.0000000  0.0000000 )


      isym =  6     120 deg rotation - cart. axis [-1,1,1]       

 cryst.   s( 6) = (     0          0         -1      )    f =( -0.0000000 )
                  (    -1          0          0      )       ( -0.5000000 )
                  (     0          1          0      )       (  0.5000000 )

 cart.    s( 6) = (  0.0000000 -1.0000000  0.0000000 )    f =( -0.0000000 )
                  (  0.0000000  0.0000000  1.0000000 )       ( -0.5000000 )
                  ( -1.0000000  0.0000000  0.0000000 )       (  0.5000000 )


      isym =  7     120 deg rotation - cart. axis [1,1,-1]       

 cryst.   s( 7) = (     0          0         -1      )    f =( -0.5000000 )
                  (     1          0          0      )       (  0.5000000 )
                  (     0         -1          0      )       ( -0.0000000 )

 cart.    s( 7) = (  0.0000000  1.0000000  0.0000000 )    f =( -0.5000000 )
                  (  0.0000000  0.0000000 -1.0000000 )       (  0.5000000 )
                  ( -1.0000000  0.0000000  0.0000000 )       ( -0.0000000 )


      isym =  8     120 deg rotation - cart. axis [1,-1,1]       

 cryst.   s( 8) = (     0          0          1      )    f =(  0.5000000 )
                  (    -1          0          0      )       ( -0.0000000 )
                  (     0         -1          0      )       ( -0.5000000 )

 cart.    s( 8) = (  0.0000000 -1.0000000  0.0000000 )    f =(  0.5000000 )
                  (  0.0000000  0.0000000 -1.0000000 )       ( -0.0000000 )
                  (  1.0000000  0.0000000  0.0000000 )       ( -0.5000000 )


      isym =  9     120 deg rotation - cart. axis [1,1,1]        

 cryst.   s( 9) = (     0          1          0      )
                  (     0          0          1      )
                  (     1          0          0      )

 cart.    s( 9) = (  0.0000000  0.0000000  1.0000000 )
                  (  1.0000000  0.0000000  0.0000000 )
                  (  0.0000000  1.0000000  0.0000000 )


      isym = 10     120 deg rotation - cart. axis [-1,1,-1]      

 cryst.   s(10) = (     0         -1          0      )    f =( -0.5000000 )
                  (     0          0         -1      )       (  0.5000000 )
                  (     1          0          0      )       ( -0.0000000 )

 cart.    s(10) = (  0.0000000  0.0000000  1.0000000 )    f =( -0.5000000 )
                  ( -1.0000000  0.0000000  0.0000000 )       (  0.5000000 )
                  (  0.0000000 -1.0000000  0.0000000 )       ( -0.0000000 )


      isym = 11     120 deg rotation - cart. axis [1,-1,-1]      

 cryst.   s(11) = (     0         -1          0      )    f =(  0.5000000 )
                  (     0          0          1      )       ( -0.0000000 )
                  (    -1          0          0      )       ( -0.5000000 )

 cart.    s(11) = (  0.0000000  0.0000000 -1.0000000 )    f =(  0.5000000 )
                  ( -1.0000000  0.0000000  0.0000000 )       ( -0.0000000 )
                  (  0.0000000  1.0000000  0.0000000 )       ( -0.5000000 )


      isym = 12     120 deg rotation - cart. axis [-1,-1,1]      

 cryst.   s(12) = (     0          1          0      )    f =( -0.0000000 )
                  (     0          0         -1      )       ( -0.5000000 )
                  (    -1          0          0      )       (  0.5000000 )

 cart.    s(12) = (  0.0000000  0.0000000 -1.0000000 )    f =( -0.0000000 )
                  (  1.0000000  0.0000000  0.0000000 )       ( -0.5000000 )
                  (  0.0000000 -1.0000000  0.0000000 )       (  0.5000000 )


   Cartesian axes

     site n.     atom                  positions (alat units)
         1           N   tau(   1) = (   0.1965969   0.1965969   0.1965969  )
         2           N   tau(   2) = (   0.3034031   0.8034031   0.6965969  )
         3           N   tau(   3) = (   0.8034031   0.6965969   0.3034031  )
         4           N   tau(   4) = (   0.6965969   0.3034031   0.8034031  )
         5           H   tau(   5) = (   0.3510363   0.2703623   0.0960458  )
         6           H   tau(   6) = (   0.1489637   0.7296377   0.5960458  )
         7           H   tau(   7) = (   0.6489637   0.7703623   0.4039542  )
         8           H   tau(   8) = (   0.8510363   0.2296377   0.9039542  )
         9           H   tau(   9) = (   0.0960458   0.3510363   0.2703623  )
        10           H   tau(  10) = (   0.5960458   0.1489637   0.7296377  )
        11           H   tau(  11) = (   0.4039542   0.6489637   0.7703623  )
        12           H   tau(  12) = (   0.9039542   0.8510363   0.2296377  )
        13           H   tau(  13) = (   0.2703623   0.0960458   0.3510363  )
        14           H   tau(  14) = (   0.7296377   0.5960458   0.1489637  )
        15           H   tau(  15) = (   0.7703623   0.4039542   0.6489637  )
        16           H   tau(  16) = (   0.2296377   0.9039542   0.8510363  )

   Crystallographic axes

     site n.     atom                  positions (cryst. coord.)
         1           N   tau(   1) = (  0.1965969  0.1965969  0.1965969  )
         2           N   tau(   2) = (  0.3034031  0.8034031  0.6965969  )
         3           N   tau(   3) = (  0.8034031  0.6965969  0.3034031  )
         4           N   tau(   4) = (  0.6965969  0.3034031  0.8034031  )
         5           H   tau(   5) = (  0.3510363  0.2703623  0.0960458  )
         6           H   tau(   6) = (  0.1489637  0.7296377  0.5960458  )
         7           H   tau(   7) = (  0.6489637  0.7703623  0.4039542  )
         8           H   tau(   8) = (  0.8510363  0.2296377  0.9039542  )
         9           H   tau(   9) = (  0.0960458  0.3510363  0.2703623  )
        10           H   tau(  10) = (  0.5960458  0.1489637  0.7296377  )
        11           H   tau(  11) = (  0.4039542  0.6489637  0.7703623  )
        12           H   tau(  12) = (  0.9039542  0.8510363  0.2296377  )
        13           H   tau(  13) = (  0.2703623  0.0960458  0.3510363  )
        14           H   tau(  14) = (  0.7296377  0.5960458  0.1489637  )
        15           H   tau(  15) = (  0.7703623  0.4039542  0.6489637  )
        16           H   tau(  16) = (  0.2296377  0.9039542  0.8510363  )

     number of k points=    91  Marzari-Vanderbilt smearing, width (Ry)=  0.0147
                       cart. coord. in units 2pi/alat
        k(    1) = (   0.0000000   0.5000000   0.0000000), wk =   0.0219780
        k(    2) = (   0.0000000   0.4750000   0.0000000), wk =   0.0219780
        k(    3) = (   0.0000000   0.4500000   0.0000000), wk =   0.0219780
        k(    4) = (   0.0000000   0.4250000   0.0000000), wk =   0.0219780
        k(    5) = (   0.0000000   0.4000000   0.0000000), wk =   0.0219780
        k(    6) = (   0.0000000   0.3750000   0.0000000), wk =   0.0219780
        k(    7) = (   0.0000000   0.3500000   0.0000000), wk =   0.0219780
        k(    8) = (   0.0000000   0.3250000   0.0000000), wk =   0.0219780
        k(    9) = (   0.0000000   0.3000000   0.0000000), wk =   0.0219780
        k(   10) = (   0.0000000   0.2750000   0.0000000), wk =   0.0219780
        k(   11) = (   0.0000000   0.2500000   0.0000000), wk =   0.0219780
        k(   12) = (   0.0000000   0.2250000   0.0000000), wk =   0.0219780
        k(   13) = (   0.0000000   0.2000000   0.0000000), wk =   0.0219780
        k(   14) = (   0.0000000   0.1750000   0.0000000), wk =   0.0219780
        k(   15) = (   0.0000000   0.1500000   0.0000000), wk =   0.0219780
        k(   16) = (   0.0000000   0.1250000   0.0000000), wk =   0.0219780
        k(   17) = (   0.0000000   0.1000000   0.0000000), wk =   0.0219780
        k(   18) = (   0.0000000   0.0750000   0.0000000), wk =   0.0219780
        k(   19) = (   0.0000000   0.0500000   0.0000000), wk =   0.0219780
        k(   20) = (   0.0000000   0.0250000   0.0000000), wk =   0.0219780
        k(   21) = (   0.0000000   0.0000000   0.0000000), wk =   0.0219780
        k(   22) = (  -0.0166667   0.0000000  -0.0166667), wk =   0.0219780
        k(   23) = (  -0.0333333   0.0000000  -0.0333333), wk =   0.0219780
        k(   24) = (  -0.0500000   0.0000000  -0.0500000), wk =   0.0219780
        k(   25) = (  -0.0666667   0.0000000  -0.0666667), wk =   0.0219780
        k(   26) = (  -0.0833333   0.0000000  -0.0833333), wk =   0.0219780
        k(   27) = (  -0.1000000   0.0000000  -0.1000000), wk =   0.0219780
        k(   28) = (  -0.1166667   0.0000000  -0.1166667), wk =   0.0219780
        k(   29) = (  -0.1333333   0.0000000  -0.1333333), wk =   0.0219780
        k(   30) = (  -0.1500000   0.0000000  -0.1500000), wk =   0.0219780
        k(   31) = (  -0.1666667   0.0000000  -0.1666667), wk =   0.0219780
        k(   32) = (  -0.1833333   0.0000000  -0.1833333), wk =   0.0219780
        k(   33) = (  -0.2000000   0.0000000  -0.2000000), wk =   0.0219780
        k(   34) = (  -0.2166667   0.0000000  -0.2166667), wk =   0.0219780
        k(   35) = (  -0.2333333   0.0000000  -0.2333333), wk =   0.0219780
        k(   36) = (  -0.2500000   0.0000000  -0.2500000), wk =   0.0219780
        k(   37) = (  -0.2666667   0.0000000  -0.2666667), wk =   0.0219780
        k(   38) = (  -0.2833333   0.0000000  -0.2833333), wk =   0.0219780
        k(   39) = (  -0.3000000   0.0000000  -0.3000000), wk =   0.0219780
        k(   40) = (  -0.3166667   0.0000000  -0.3166667), wk =   0.0219780
        k(   41) = (  -0.3333333   0.0000000  -0.3333333), wk =   0.0219780
        k(   42) = (  -0.3500000   0.0000000  -0.3500000), wk =   0.0219780
        k(   43) = (  -0.3666667   0.0000000  -0.3666667), wk =   0.0219780
        k(   44) = (  -0.3833333   0.0000000  -0.3833333), wk =   0.0219780
        k(   45) = (  -0.4000000   0.0000000  -0.4000000), wk =   0.0219780
        k(   46) = (  -0.4166667   0.0000000  -0.4166667), wk =   0.0219780
        k(   47) = (  -0.4333333   0.0000000  -0.4333333), wk =   0.0219780
        k(   48) = (  -0.4500000   0.0000000  -0.4500000), wk =   0.0219780
        k(   49) = (  -0.4666667   0.0000000  -0.4666667), wk =   0.0219780
        k(   50) = (  -0.4833333   0.0000000  -0.4833333), wk =   0.0219780
        k(   51) = (  -0.5000000   0.0000000  -0.5000000), wk =   0.0219780
        k(   52) = (  -0.4875000   0.0250000  -0.4875000), wk =   0.0219780
        k(   53) = (  -0.4750000   0.0500000  -0.4750000), wk =   0.0219780
        k(   54) = (  -0.4625000   0.0750000  -0.4625000), wk =   0.0219780
        k(   55) = (  -0.4500000   0.1000000  -0.4500000), wk =   0.0219780
        k(   56) = (  -0.4375000   0.1250000  -0.4375000), wk =   0.0219780
        k(   57) = (  -0.4250000   0.1500000  -0.4250000), wk =   0.0219780
        k(   58) = (  -0.4125000   0.1750000  -0.4125000), wk =   0.0219780
        k(   59) = (  -0.4000000   0.2000000  -0.4000000), wk =   0.0219780
        k(   60) = (  -0.3875000   0.2250000  -0.3875000), wk =   0.0219780
        k(   61) = (  -0.3750000   0.2500000  -0.3750000), wk =   0.0219780
        k(   62) = (  -0.3625000   0.2416667  -0.3625000), wk =   0.0219780
        k(   63) = (  -0.3500000   0.2333333  -0.3500000), wk =   0.0219780
        k(   64) = (  -0.3375000   0.2250000  -0.3375000), wk =   0.0219780
        k(   65) = (  -0.3250000   0.2166667  -0.3250000), wk =   0.0219780
        k(   66) = (  -0.3125000   0.2083333  -0.3125000), wk =   0.0219780
        k(   67) = (  -0.3000000   0.2000000  -0.3000000), wk =   0.0219780
        k(   68) = (  -0.2875000   0.1916667  -0.2875000), wk =   0.0219780
        k(   69) = (  -0.2750000   0.1833333  -0.2750000), wk =   0.0219780
        k(   70) = (  -0.2625000   0.1750000  -0.2625000), wk =   0.0219780
        k(   71) = (  -0.2500000   0.1666667  -0.2500000), wk =   0.0219780
        k(   72) = (  -0.2375000   0.1583333  -0.2375000), wk =   0.0219780
        k(   73) = (  -0.2250000   0.1500000  -0.2250000), wk =   0.0219780
        k(   74) = (  -0.2125000   0.1416667  -0.2125000), wk =   0.0219780
        k(   75) = (  -0.2000000   0.1333333  -0.2000000), wk =   0.0219780
        k(   76) = (  -0.1875000   0.1250000  -0.1875000), wk =   0.0219780
        k(   77) = (  -0.1750000   0.1166667  -0.1750000), wk =   0.0219780
        k(   78) = (  -0.1625000   0.1083333  -0.1625000), wk =   0.0219780
        k(   79) = (  -0.1500000   0.1000000  -0.1500000), wk =   0.0219780
        k(   80) = (  -0.1375000   0.0916667  -0.1375000), wk =   0.0219780
        k(   81) = (  -0.1250000   0.0833333  -0.1250000), wk =   0.0219780
        k(   82) = (  -0.1125000   0.0750000  -0.1125000), wk =   0.0219780
        k(   83) = (  -0.1000000   0.0666667  -0.1000000), wk =   0.0219780
        k(   84) = (  -0.0875000   0.0583333  -0.0875000), wk =   0.0219780
        k(   85) = (  -0.0750000   0.0500000  -0.0750000), wk =   0.0219780
        k(   86) = (  -0.0625000   0.0416667  -0.0625000), wk =   0.0219780
        k(   87) = (  -0.0500000   0.0333333  -0.0500000), wk =   0.0219780
        k(   88) = (  -0.0375000   0.0250000  -0.0375000), wk =   0.0219780
        k(   89) = (  -0.0250000   0.0166667  -0.0250000), wk =   0.0219780
        k(   90) = (  -0.0125000   0.0083333  -0.0125000), wk =   0.0219780
        k(   91) = (   0.0000000   0.0000000   0.0000000), wk =   0.0219780

                       cryst. coord.
        k(    1) = (   0.0000000   0.5000000   0.0000000), wk =   0.0219780
        k(    2) = (   0.0000000   0.4750000   0.0000000), wk =   0.0219780
        k(    3) = (   0.0000000   0.4500000   0.0000000), wk =   0.0219780
        k(    4) = (   0.0000000   0.4250000   0.0000000), wk =   0.0219780
        k(    5) = (   0.0000000   0.4000000   0.0000000), wk =   0.0219780
        k(    6) = (   0.0000000   0.3750000   0.0000000), wk =   0.0219780
        k(    7) = (   0.0000000   0.3500000   0.0000000), wk =   0.0219780
        k(    8) = (   0.0000000   0.3250000   0.0000000), wk =   0.0219780
        k(    9) = (   0.0000000   0.3000000   0.0000000), wk =   0.0219780
        k(   10) = (   0.0000000   0.2750000   0.0000000), wk =   0.0219780
        k(   11) = (   0.0000000   0.2500000   0.0000000), wk =   0.0219780
        k(   12) = (   0.0000000   0.2250000   0.0000000), wk =   0.0219780
        k(   13) = (   0.0000000   0.2000000   0.0000000), wk =   0.0219780
        k(   14) = (   0.0000000   0.1750000   0.0000000), wk =   0.0219780
        k(   15) = (   0.0000000   0.1500000   0.0000000), wk =   0.0219780
        k(   16) = (   0.0000000   0.1250000   0.0000000), wk =   0.0219780
        k(   17) = (   0.0000000   0.1000000   0.0000000), wk =   0.0219780
        k(   18) = (   0.0000000   0.0750000   0.0000000), wk =   0.0219780
        k(   19) = (   0.0000000   0.0500000   0.0000000), wk =   0.0219780
        k(   20) = (   0.0000000   0.0250000   0.0000000), wk =   0.0219780
        k(   21) = (   0.0000000   0.0000000   0.0000000), wk =   0.0219780
        k(   22) = (  -0.0166667   0.0000000  -0.0166667), wk =   0.0219780
        k(   23) = (  -0.0333333   0.0000000  -0.0333333), wk =   0.0219780
        k(   24) = (  -0.0500000   0.0000000  -0.0500000), wk =   0.0219780
        k(   25) = (  -0.0666667   0.0000000  -0.0666667), wk =   0.0219780
        k(   26) = (  -0.0833333   0.0000000  -0.0833333), wk =   0.0219780
        k(   27) = (  -0.1000000   0.0000000  -0.1000000), wk =   0.0219780
        k(   28) = (  -0.1166667   0.0000000  -0.1166667), wk =   0.0219780
        k(   29) = (  -0.1333333   0.0000000  -0.1333333), wk =   0.0219780
        k(   30) = (  -0.1500000   0.0000000  -0.1500000), wk =   0.0219780
        k(   31) = (  -0.1666667   0.0000000  -0.1666667), wk =   0.0219780
        k(   32) = (  -0.1833333   0.0000000  -0.1833333), wk =   0.0219780
        k(   33) = (  -0.2000000   0.0000000  -0.2000000), wk =   0.0219780
        k(   34) = (  -0.2166667   0.0000000  -0.2166667), wk =   0.0219780
        k(   35) = (  -0.2333333   0.0000000  -0.2333333), wk =   0.0219780
        k(   36) = (  -0.2500000   0.0000000  -0.2500000), wk =   0.0219780
        k(   37) = (  -0.2666667   0.0000000  -0.2666667), wk =   0.0219780
        k(   38) = (  -0.2833333   0.0000000  -0.2833333), wk =   0.0219780
        k(   39) = (  -0.3000000   0.0000000  -0.3000000), wk =   0.0219780
        k(   40) = (  -0.3166667   0.0000000  -0.3166667), wk =   0.0219780
        k(   41) = (  -0.3333333   0.0000000  -0.3333333), wk =   0.0219780
        k(   42) = (  -0.3500000   0.0000000  -0.3500000), wk =   0.0219780
        k(   43) = (  -0.3666667   0.0000000  -0.3666667), wk =   0.0219780
        k(   44) = (  -0.3833333   0.0000000  -0.3833333), wk =   0.0219780
        k(   45) = (  -0.4000000   0.0000000  -0.4000000), wk =   0.0219780
        k(   46) = (  -0.4166667   0.0000000  -0.4166667), wk =   0.0219780
        k(   47) = (  -0.4333333   0.0000000  -0.4333333), wk =   0.0219780
        k(   48) = (  -0.4500000   0.0000000  -0.4500000), wk =   0.0219780
        k(   49) = (  -0.4666667   0.0000000  -0.4666667), wk =   0.0219780
        k(   50) = (  -0.4833333   0.0000000  -0.4833333), wk =   0.0219780
        k(   51) = (  -0.5000000   0.0000000  -0.5000000), wk =   0.0219780
        k(   52) = (  -0.4875000   0.0250000  -0.4875000), wk =   0.0219780
        k(   53) = (  -0.4750000   0.0500000  -0.4750000), wk =   0.0219780
        k(   54) = (  -0.4625000   0.0750000  -0.4625000), wk =   0.0219780
        k(   55) = (  -0.4500000   0.1000000  -0.4500000), wk =   0.0219780
        k(   56) = (  -0.4375000   0.1250000  -0.4375000), wk =   0.0219780
        k(   57) = (  -0.4250000   0.1500000  -0.4250000), wk =   0.0219780
        k(   58) = (  -0.4125000   0.1750000  -0.4125000), wk =   0.0219780
        k(   59) = (  -0.4000000   0.2000000  -0.4000000), wk =   0.0219780
        k(   60) = (  -0.3875000   0.2250000  -0.3875000), wk =   0.0219780
        k(   61) = (  -0.3750000   0.2500000  -0.3750000), wk =   0.0219780
        k(   62) = (  -0.3625000   0.2416667  -0.3625000), wk =   0.0219780
        k(   63) = (  -0.3500000   0.2333333  -0.3500000), wk =   0.0219780
        k(   64) = (  -0.3375000   0.2250000  -0.3375000), wk =   0.0219780
        k(   65) = (  -0.3250000   0.2166667  -0.3250000), wk =   0.0219780
        k(   66) = (  -0.3125000   0.2083333  -0.3125000), wk =   0.0219780
        k(   67) = (  -0.3000000   0.2000000  -0.3000000), wk =   0.0219780
        k(   68) = (  -0.2875000   0.1916667  -0.2875000), wk =   0.0219780
        k(   69) = (  -0.2750000   0.1833333  -0.2750000), wk =   0.0219780
        k(   70) = (  -0.2625000   0.1750000  -0.2625000), wk =   0.0219780
        k(   71) = (  -0.2500000   0.1666667  -0.2500000), wk =   0.0219780
        k(   72) = (  -0.2375000   0.1583333  -0.2375000), wk =   0.0219780
        k(   73) = (  -0.2250000   0.1500000  -0.2250000), wk =   0.0219780
        k(   74) = (  -0.2125000   0.1416667  -0.2125000), wk =   0.0219780
        k(   75) = (  -0.2000000   0.1333333  -0.2000000), wk =   0.0219780
        k(   76) = (  -0.1875000   0.1250000  -0.1875000), wk =   0.0219780
        k(   77) = (  -0.1750000   0.1166667  -0.1750000), wk =   0.0219780
        k(   78) = (  -0.1625000   0.1083333  -0.1625000), wk =   0.0219780
        k(   79) = (  -0.1500000   0.1000000  -0.1500000), wk =   0.0219780
        k(   80) = (  -0.1375000   0.0916667  -0.1375000), wk =   0.0219780
        k(   81) = (  -0.1250000   0.0833333  -0.1250000), wk =   0.0219780
        k(   82) = (  -0.1125000   0.0750000  -0.1125000), wk =   0.0219780
        k(   83) = (  -0.1000000   0.0666667  -0.1000000), wk =   0.0219780
        k(   84) = (  -0.0875000   0.0583333  -0.0875000), wk =   0.0219780
        k(   85) = (  -0.0750000   0.0500000  -0.0750000), wk =   0.0219780
        k(   86) = (  -0.0625000   0.0416667  -0.0625000), wk =   0.0219780
        k(   87) = (  -0.0500000   0.0333333  -0.0500000), wk =   0.0219780
        k(   88) = (  -0.0375000   0.0250000  -0.0375000), wk =   0.0219780
        k(   89) = (  -0.0250000   0.0166667  -0.0250000), wk =   0.0219780
        k(   90) = (  -0.0125000   0.0083333  -0.0125000), wk =   0.0219780
        k(   91) = (   0.0000000   0.0000000   0.0000000), wk =   0.0219780

     Dense  grid:   166269 G-vectors     FFT dimensions: (  72,  72,  72)

     Smooth grid:    58701 G-vectors     FFT dimensions: (  50,  50,  50)

     Dynamical RAM for                 wfc:       0.16 MB

     Dynamical RAM for     wfc (w. buffer):       0.16 MB

     Dynamical RAM for           str. fact:       0.36 MB

     Dynamical RAM for           local pot:       0.00 MB

     Dynamical RAM for          nlocal pot:       0.45 MB

     Dynamical RAM for                qrad:       1.00 MB

     Dynamical RAM for          rho,v,vnew:       1.26 MB

     Dynamical RAM for           G-vectors:       0.71 MB

     Dynamical RAM for          h,s,v(r/c):       0.07 MB

     Dynamical RAM for          <psi|beta>:       0.02 MB

     Dynamical RAM for                 psi:       0.32 MB

     Dynamical RAM for                hpsi:       0.32 MB

     Dynamical RAM for                spsi:       0.32 MB

     Dynamical RAM for      wfcinit/wfcrot:       0.47 MB

     Dynamical RAM for           addusdens:       9.97 MB

     Estimated static dynamical RAM per process >       5.67 MB

     Estimated max dynamical RAM per process >      15.64 MB

     Estimated total dynamical RAM >     218.95 MB

     Check: negative core charge=   -0.000001

     The potential is recalculated from file :
     ./out/AC_Ph_1.save/charge-density

     Starting wfcs are   28 randomized atomic wfcs

     Band Structure Calculation
     Davidson diagonalization with overlap

     Computing kpt #:     1  of    91
     total cpu time spent up to now is        2.7 secs

     Computing kpt #:     2  of    91
     total cpu time spent up to now is        3.8 secs

     Computing kpt #:     3  of    91
     total cpu time spent up to now is        4.8 secs

     Computing kpt #:     4  of    91
     total cpu time spent up to now is        5.9 secs

     Computing kpt #:     5  of    91
     total cpu time spent up to now is        6.9 secs

     Computing kpt #:     6  of    91
     total cpu time spent up to now is        7.9 secs

     Computing kpt #:     7  of    91
     total cpu time spent up to now is        8.9 secs

     Computing kpt #:     8  of    91
     total cpu time spent up to now is        9.8 secs

     Computing kpt #:     9  of    91
     total cpu time spent up to now is       10.7 secs

     Computing kpt #:    10  of    91
     total cpu time spent up to now is       11.6 secs

     Computing kpt #:    11  of    91
     total cpu time spent up to now is       12.5 secs

     Computing kpt #:    12  of    91
     total cpu time spent up to now is       13.4 secs

     Computing kpt #:    13  of    91
     total cpu time spent up to now is       14.3 secs

     Computing kpt #:    14  of    91
     total cpu time spent up to now is       15.2 secs

     Computing kpt #:    15  of    91
     total cpu time spent up to now is       16.1 secs

     Computing kpt #:    16  of    91
     total cpu time spent up to now is       17.0 secs

     Computing kpt #:    17  of    91
     total cpu time spent up to now is       17.9 secs

     Computing kpt #:    18  of    91
     total cpu time spent up to now is       18.8 secs

     Computing kpt #:    19  of    91
     total cpu time spent up to now is       19.7 secs

     Computing kpt #:    20  of    91
     total cpu time spent up to now is       20.6 secs

     Computing kpt #:    21  of    91
     total cpu time spent up to now is       21.4 secs

     Computing kpt #:    22  of    91
     total cpu time spent up to now is       22.3 secs

     Computing kpt #:    23  of    91
     total cpu time spent up to now is       23.2 secs

     Computing kpt #:    24  of    91
     total cpu time spent up to now is       24.1 secs

     Computing kpt #:    25  of    91
     total cpu time spent up to now is       25.0 secs

     Computing kpt #:    26  of    91
     total cpu time spent up to now is       25.9 secs

     Computing kpt #:    27  of    91
     total cpu time spent up to now is       26.8 secs

     Computing kpt #:    28  of    91
     total cpu time spent up to now is       27.7 secs

     Computing kpt #:    29  of    91
     total cpu time spent up to now is       28.6 secs

     Computing kpt #:    30  of    91
     total cpu time spent up to now is       29.5 secs

     Computing kpt #:    31  of    91
     total cpu time spent up to now is       30.4 secs

     Computing kpt #:    32  of    91
     total cpu time spent up to now is       31.3 secs

     Computing kpt #:    33  of    91
     total cpu time spent up to now is       32.3 secs

     Computing kpt #:    34  of    91
     total cpu time spent up to now is       33.2 secs

     Computing kpt #:    35  of    91
     total cpu time spent up to now is       34.2 secs

     Computing kpt #:    36  of    91
     total cpu time spent up to now is       35.3 secs

     Computing kpt #:    37  of    91
     total cpu time spent up to now is       36.3 secs

     Computing kpt #:    38  of    91
     total cpu time spent up to now is       37.4 secs

     Computing kpt #:    39  of    91
     total cpu time spent up to now is       38.7 secs

     Computing kpt #:    40  of    91
     total cpu time spent up to now is       39.8 secs

     Computing kpt #:    41  of    91
     total cpu time spent up to now is       40.8 secs

     Computing kpt #:    42  of    91
     total cpu time spent up to now is       41.8 secs

     Computing kpt #:    43  of    91
     total cpu time spent up to now is       42.8 secs

     Computing kpt #:    44  of    91
     total cpu time spent up to now is       43.7 secs

     Computing kpt #:    45  of    91
     total cpu time spent up to now is       44.6 secs

     Computing kpt #:    46  of    91
     total cpu time spent up to now is       45.5 secs

     Computing kpt #:    47  of    91
     total cpu time spent up to now is       46.4 secs

     Computing kpt #:    48  of    91
     total cpu time spent up to now is       47.3 secs

     Computing kpt #:    49  of    91
     total cpu time spent up to now is       48.2 secs

     Computing kpt #:    50  of    91
     total cpu time spent up to now is       49.0 secs

     Computing kpt #:    51  of    91
     total cpu time spent up to now is       49.9 secs

     Computing kpt #:    52  of    91
     total cpu time spent up to now is       50.8 secs

     Computing kpt #:    53  of    91
     total cpu time spent up to now is       51.7 secs

     Computing kpt #:    54  of    91
     total cpu time spent up to now is       52.6 secs

     Computing kpt #:    55  of    91
     total cpu time spent up to now is       53.5 secs

     Computing kpt #:    56  of    91
     total cpu time spent up to now is       54.4 secs

     Computing kpt #:    57  of    91
     total cpu time spent up to now is       55.4 secs

     Computing kpt #:    58  of    91
     total cpu time spent up to now is       56.3 secs

     Computing kpt #:    59  of    91
     total cpu time spent up to now is       57.2 secs

     Computing kpt #:    60  of    91
     total cpu time spent up to now is       58.2 secs

     Computing kpt #:    61  of    91
     total cpu time spent up to now is       59.1 secs

     Computing kpt #:    62  of    91
     total cpu time spent up to now is       60.0 secs

     Computing kpt #:    63  of    91
     total cpu time spent up to now is       60.9 secs

     Computing kpt #:    64  of    91
     total cpu time spent up to now is       61.8 secs

     Computing kpt #:    65  of    91
     total cpu time spent up to now is       62.7 secs

     Computing kpt #:    66  of    91
     total cpu time spent up to now is       63.7 secs

     Computing kpt #:    67  of    91
     total cpu time spent up to now is       64.6 secs

     Computing kpt #:    68  of    91
     total cpu time spent up to now is       65.6 secs

     Computing kpt #:    69  of    91
     total cpu time spent up to now is       66.6 secs

     Computing kpt #:    70  of    91
     total cpu time spent up to now is       67.7 secs

     Computing kpt #:    71  of    91
     total cpu time spent up to now is       68.7 secs

     Computing kpt #:    72  of    91
     total cpu time spent up to now is       69.7 secs

     Computing kpt #:    73  of    91
     total cpu time spent up to now is       70.8 secs

     Computing kpt #:    74  of    91
     total cpu time spent up to now is       71.8 secs

     Computing kpt #:    75  of    91
     total cpu time spent up to now is       72.7 secs

     Computing kpt #:    76  of    91
     total cpu time spent up to now is       73.7 secs

     Computing kpt #:    77  of    91
     total cpu time spent up to now is       74.6 secs

     Computing kpt #:    78  of    91
     total cpu time spent up to now is       75.5 secs

     Computing kpt #:    79  of    91
     total cpu time spent up to now is       76.4 secs

     Computing kpt #:    80  of    91
     total cpu time spent up to now is       77.3 secs

     Computing kpt #:    81  of    91
     total cpu time spent up to now is       78.2 secs

     Computing kpt #:    82  of    91
     total cpu time spent up to now is       79.1 secs

     Computing kpt #:    83  of    91
     total cpu time spent up to now is       80.0 secs

     Computing kpt #:    84  of    91
     total cpu time spent up to now is       80.9 secs

     Computing kpt #:    85  of    91
     total cpu time spent up to now is       81.7 secs

     Computing kpt #:    86  of    91
     total cpu time spent up to now is       82.6 secs

     Computing kpt #:    87  of    91
     total cpu time spent up to now is       83.5 secs

     Computing kpt #:    88  of    91
     total cpu time spent up to now is       84.4 secs

     Computing kpt #:    89  of    91
     total cpu time spent up to now is       85.3 secs

     Computing kpt #:    90  of    91
     total cpu time spent up to now is       86.2 secs

     Computing kpt #:    91  of    91
     total cpu time spent up to now is       87.1 secs

     ethr =  1.00E-11,  avg # of iterations = 35.3

     total cpu time spent up to now is       87.1 secs

     End of band structure calculation

          k = 0.0000 0.5000 0.0000 (  7368 PWs)   bands (ev):

   -17.0610 -17.0610 -16.6731 -16.6731  -7.5692  -7.5692  -7.1442  -7.1442
    -6.8180  -6.8180  -6.5725  -6.5725  -2.6028  -2.6028  -2.0196  -2.0196
     4.3586   4.3586   6.7895   6.7895

          k = 0.0000 0.4750 0.0000 (  7328 PWs)   bands (ev):

   -17.0836 -17.0382 -16.6751 -16.6712  -7.5700  -7.5691  -7.1729  -7.1162
    -6.8252  -6.8083  -6.5866  -6.5588  -2.6031  -2.6003  -2.0352  -2.0039
     4.2213   4.4938   6.7481   6.8150

          k = 0.0000 0.4500 0.0000 (  7332 PWs)   bands (ev):

   -17.1059 -17.0152 -16.6772 -16.6694  -7.5718  -7.5699  -7.2022  -7.0890
    -6.8297  -6.7966  -6.6009  -6.5458  -2.6013  -2.5956  -2.0507  -1.9881
     4.0829   4.6258   6.6959   6.8190

          k = 0.0000 0.4250 0.0000 (  7344 PWs)   bands (ev):

   -17.1278 -16.9923 -16.6795 -16.6679  -7.5744  -7.5712  -7.2319  -7.0627
    -6.8314  -6.7834  -6.6152  -6.5337  -2.5975  -2.5887  -2.0663  -1.9724
     3.9446   4.7535   6.6373   6.7986

          k = 0.0000 0.4000 0.0000 (  7360 PWs)   bands (ev):

   -17.1490 -16.9696 -16.6818 -16.6666  -7.5777  -7.5731  -7.2618  -7.0373
    -6.8301  -6.7694  -6.6290  -6.5227  -2.5918  -2.5796  -2.0818  -1.9567
     3.8073   4.8757   6.5756   6.7550

          k = 0.0000 0.3750 0.0000 (  7336 PWs)   bands (ev):

   -17.1696 -16.9471 -16.6840 -16.6655  -7.5818  -7.5754  -7.2917  -7.0128
    -6.8258  -6.7553  -6.6417  -6.5128  -2.5844  -2.5684  -2.0974  -1.9411
     3.6719   4.9911   6.5129   6.6929

          k = 0.0000 0.3500 0.0000 (  7328 PWs)   bands (ev):

   -17.1894 -16.9250 -16.6864 -16.6647  -7.5864  -7.5781  -7.3214  -6.9892
    -6.8188  -6.7428  -6.6523  -6.5043  -2.5753  -2.5552  -2.1130  -1.9257
     3.5395   5.0987   6.4509   6.6179

          k = 0.0000 0.3250 0.0000 (  7336 PWs)   bands (ev):

   -17.2083 -16.9035 -16.6886 -16.6643  -7.5915  -7.5809  -7.3505  -6.9666
    -6.8092  -6.7338  -6.6588  -6.4974  -2.5648  -2.5402  -2.1287  -1.9106
     3.4109   5.1975   6.3908   6.5351

          k = 0.0000 0.3000 0.0000 (  7324 PWs)   bands (ev):

   -17.2261 -16.8826 -16.6909 -16.6641  -7.5968  -7.5838  -7.3789  -6.9449
    -6.7972  -6.7309  -6.6590  -6.4921  -2.5529  -2.5235  -2.1446  -1.8960
     3.2870   5.2865   6.3331   6.4485

          k = 0.0000 0.2750 0.0000 (  7332 PWs)   bands (ev):

   -17.2430 -16.8624 -16.6930 -16.6644  -7.6020  -7.5867  -7.4064  -6.9244
    -6.7831  -6.7344  -6.6529  -6.4886  -2.5399  -2.5056  -2.1606  -1.8818
     3.1687   5.3654   6.2781   6.3614

          k = 0.0000 0.2500 0.0000 (  7328 PWs)   bands (ev):

   -17.2586 -16.8430 -16.6951 -16.6651  -7.6071  -7.5896  -7.4328  -6.9049
    -6.7672  -6.7417  -6.6431  -6.4869  -2.5257  -2.4868  -2.1769  -1.8684
     3.0569   5.4341   6.2259   6.2762

          k = 0.0000 0.2250 0.0000 (  7300 PWs)   bands (ev):

   -17.2730 -16.8245 -16.6970 -16.6662  -7.6117  -7.5922  -7.4578  -6.8867
    -6.7506  -6.7498  -6.6319  -6.4871  -2.5107  -2.4674  -2.1934  -1.8558
     2.9524   5.4929   6.1762   6.1947

          k = 0.0000 0.2000 0.0000 (  7292 PWs)   bands (ev):

   -17.2860 -16.8070 -16.6988 -16.6679  -7.6158  -7.5947  -7.4814  -6.8699
    -6.7599  -6.7311  -6.6208  -6.4892  -2.4949  -2.4480  -2.2102  -1.8442
     2.8561   5.5428   6.1185   6.1287

          k = 0.0000 0.1750 0.0000 (  7308 PWs)   bands (ev):

   -17.2977 -16.7905 -16.7004 -16.6701  -7.6190  -7.5970  -7.5033  -6.8546
    -6.7687  -6.7116  -6.6104  -6.4934  -2.4784  -2.4290  -2.2272  -1.8337
     2.7688   5.5852   6.0487   6.0829

          k = 0.0000 0.1500 0.0000 (  7296 PWs)   bands (ev):

   -17.3080 -16.7751 -16.7019 -16.6729  -7.6212  -7.5990  -7.5235  -6.8410
    -6.7768  -6.6915  -6.6010  -6.4996  -2.4613  -2.4111  -2.2445  -1.8244
     2.6912   5.6218   5.9865   6.0386

          k = 0.0000 0.1250 0.0000 (  7296 PWs)   bands (ev):

   -17.3167 -16.7608 -16.7031 -16.6765  -7.6222  -7.6008  -7.5418  -6.8291
    -6.7840  -6.6711  -6.5930  -6.5076  -2.4438  -2.3947  -2.2621  -1.8164
     2.6242   5.6543   5.9326   5.9957

          k = 0.0000 0.1000 0.0000 (  7280 PWs)   bands (ev):

   -17.3239 -16.7476 -16.7042 -16.6807  -7.6219  -7.6022  -7.5583  -6.8192
    -6.7900  -6.6507  -6.5864  -6.5176  -2.4260  -2.3804  -2.2799  -1.8098
     2.5684   5.6844   5.8876   5.9542

          k = 0.0000 0.0750 0.0000 (  7272 PWs)   bands (ev):

   -17.3296 -16.7356 -16.7050 -16.6857  -7.6201  -7.6033  -7.5728  -6.8113
    -6.7947  -6.6306  -6.5812  -6.5294  -2.4079  -2.3686  -2.2979  -1.8046
     2.5243   5.7136   5.8521   5.9143

          k = 0.0000 0.0500 0.0000 (  7269 PWs)   bands (ev):

   -17.3336 -16.7247 -16.7056 -16.6916  -7.6167  -7.6041  -7.5854  -6.8056
    -6.7982  -6.6110  -6.5775  -6.5430  -2.3896  -2.3599  -2.3160  -1.8009
     2.4925   5.7431   5.8265   5.8761

          k = 0.0000 0.0250 0.0000 (  7229 PWs)   bands (ev):

   -17.3361 -16.7148 -16.7060 -16.6983  -7.6116  -7.6046  -7.5960  -6.8021
    -6.8002  -6.5923  -6.5753  -6.5580  -2.3712  -2.3545  -2.3343  -1.7986
     2.4733   5.7736   5.8110   5.8399

          k = 0.0000 0.0000 0.0000 (  7249 PWs)   bands (ev):

   -17.3369 -16.7061 -16.7061 -16.7061  -7.6048  -7.6048  -7.6048  -6.8009
    -6.8009  -6.5745  -6.5745  -6.5745  -2.3527  -2.3527  -2.3527  -1.7979
     2.4668   5.8058   5.8058   5.8058

          k =-0.0167 0.0000-0.0167 (  7233 PWs)   bands (ev):

   -17.3362 -16.7142 -16.7062 -16.6986  -7.6112  -7.6047  -7.5965  -6.8016
    -6.8007  -6.5908  -6.5760  -6.5586  -2.3700  -2.3546  -2.3353  -1.7985
     2.4725   5.7762   5.8089   5.8387

          k =-0.0333 0.0000-0.0333 (  7257 PWs)   bands (ev):

   -17.3340 -16.7229 -16.7066 -16.6919  -7.6159  -7.6046  -7.5866  -6.8035
    -6.8001  -6.6071  -6.5803  -6.5432  -2.3870  -2.3600  -2.3177  -1.8005
     2.4896   5.7498   5.8180   5.8749

          k =-0.0500 0.0000-0.0500 (  7275 PWs)   bands (ev):

   -17.3304 -16.7322 -16.7073 -16.6859  -7.6189  -7.6044  -7.5752  -6.8067
    -6.7992  -6.6229  -6.5874  -6.5285  -2.4036  -2.3687  -2.3002  -1.8038
     2.5179   5.7264   5.8328   5.9144

          k =-0.0667 0.0000-0.0667 (  7281 PWs)   bands (ev):

   -17.3254 -16.7421 -16.7082 -16.6806  -7.6201  -7.6041  -7.5622  -6.8114
    -6.7980  -6.6378  -6.5972  -6.5148  -2.4198  -2.3805  -2.2827  -1.8084
     2.5570   5.7061   5.8525   5.9575

          k =-0.0833 0.0000-0.0833 (  7289 PWs)   bands (ev):

   -17.3190 -16.7524 -16.7095 -16.6760  -7.6198  -7.6038  -7.5480  -6.8177
    -6.7967  -6.6513  -6.6095  -6.5022  -2.4354  -2.3948  -2.2654  -1.8142
     2.6065   5.6886   5.8762   6.0042

          k =-0.1000 0.0000-0.1000 (  7291 PWs)   bands (ev):

   -17.3112 -16.7632 -16.7109 -16.6722  -7.6180  -7.6033  -7.5326  -6.8256
    -6.7955  -6.6631  -6.6239  -6.4907  -2.4505  -2.4111  -2.2483  -1.8212
     2.6658   5.6738   5.9026   6.0547

          k =-0.1167 0.0000-0.1167 (  7301 PWs)   bands (ev):

   -17.3021 -16.7744 -16.7127 -16.6692  -7.6151  -7.6028  -7.5164  -6.8350
    -6.7947  -6.6729  -6.6399  -6.4804  -2.4650  -2.4289  -2.2316  -1.8293
     2.7344   5.6613   5.9303   6.1091

          k =-0.1333 0.0000-0.1333 (  7311 PWs)   bands (ev):

   -17.2918 -16.7858 -16.7147 -16.6669  -7.6113  -7.6020  -7.4996  -6.8457
    -6.7950  -6.6814  -6.6559  -6.4713  -2.4788  -2.4474  -2.2152  -1.8384
     2.8115   5.6510   5.9577   6.1677

          k =-0.1500 0.0000-0.1500 (  7327 PWs)   bands (ev):

   -17.2803 -16.7975 -16.7169 -16.6654  -7.6075  -7.6006  -7.4825  -6.8572
    -6.7972  -6.6913  -6.6685  -6.4635  -2.4920  -2.4661  -2.1993  -1.8484
     2.8965   5.6425   5.9830   6.2305

          k =-0.1667 0.0000-0.1667 (  7305 PWs)   bands (ev):

   -17.2676 -16.8094 -16.7194 -16.6647  -7.6048  -7.5974  -7.4652  -6.8688
    -6.8024  -6.7050  -6.6737  -6.4569  -2.5046  -2.4843  -2.1838  -1.8590
     2.9888   5.6355   6.0047   6.2974

          k =-0.1833 0.0000-0.1833 (  7323 PWs)   bands (ev):

   -17.2538 -16.8213 -16.7220 -16.6647  -7.6036  -7.5926  -7.4482  -6.8802
    -6.8123  -6.7192  -6.6734  -6.4516  -2.5172  -2.5011  -2.1689  -1.8702
     3.0875   5.6296   6.0214   6.3681

          k =-0.2000 0.0000-0.2000 (  7331 PWs)   bands (ev):

   -17.2391 -16.8332 -16.7249 -16.6655  -7.6031  -7.5873  -7.4316  -6.8908
    -6.8279  -6.7303  -6.6697  -6.4476  -2.5301  -2.5156  -2.1546  -1.8818
     3.1921   5.6244   6.0318   6.4422

          k =-0.2167 0.0000-0.2167 (  7343 PWs)   bands (ev):

   -17.2234 -16.8451 -16.7279 -16.6672  -7.6028  -7.5823  -7.4157  -6.9009
    -6.8483  -6.7378  -6.6637  -6.4448  -2.5433  -2.5275  -2.1409  -1.8936
     3.3019   5.6195   6.0351   6.5191

          k =-0.2333 0.0000-0.2333 (  7339 PWs)   bands (ev):

   -17.2069 -16.8568 -16.7311 -16.6696  -7.6026  -7.5777  -7.4007  -6.9122
    -6.8697  -6.7422  -6.6557  -6.4433  -2.5561  -2.5372  -2.1278  -1.9054
     3.4162   5.6146   6.0308   6.5980

          k =-0.2500 0.0000-0.2500 (  7335 PWs)   bands (ev):

   -17.1897 -16.8682 -16.7344 -16.6728  -7.6024  -7.5739  -7.3868  -6.9300
    -6.8850  -6.7448  -6.6464  -6.4429  -2.5677  -2.5455  -2.1153  -1.9172
     3.5347   5.6094   6.0185   6.6779

          k =-0.2667 0.0000-0.2667 (  7347 PWs)   bands (ev):

   -17.1719 -16.8794 -16.7377 -16.6768  -7.6022  -7.5710  -7.3741  -6.9567
    -6.8906  -6.7462  -6.6360  -6.4438  -2.5775  -2.5526  -2.1035  -1.9287
     3.6566   5.6035   5.9986   6.7567

          k =-0.2833 0.0000-0.2833 (  7349 PWs)   bands (ev):

   -17.1537 -16.8901 -16.7411 -16.6816  -7.6020  -7.5691  -7.3626  -6.9882
    -6.8895  -6.7469  -6.6249  -6.4459  -2.5856  -2.5588  -2.0924  -1.9398
     3.7816   5.5969   5.9715   6.8293

          k =-0.3000 0.0000-0.3000 (  7359 PWs)   bands (ev):

   -17.1350 -16.9004 -16.7444 -16.6871  -7.6017  -7.5681  -7.3525  -7.0217
    -6.8841  -6.7470  -6.6134  -6.4491  -2.5917  -2.5643  -2.0819  -1.9504
     3.9092   5.5893   5.9383   6.8747

          k =-0.3167 0.0000-0.3167 (  7351 PWs)   bands (ev):

   -17.1162 -16.9102 -16.7476 -16.6934  -7.6011  -7.5679  -7.3435  -7.0559
    -6.8753  -6.7468  -6.6017  -6.4534  -2.5961  -2.5689  -2.0721  -1.9604
     4.0390   5.5809   5.9000   6.8472

          k =-0.3333 0.0000-0.3333 (  7353 PWs)   bands (ev):

   -17.0973 -16.9193 -16.7508 -16.7004  -7.6003  -7.5685  -7.3358  -7.0900
    -6.8638  -6.7463  -6.5902  -6.4588  -2.5988  -2.5730  -2.0629  -1.9698
     4.1706   5.5718   5.8581   6.7667

          k =-0.3500 0.0000-0.3500 (  7359 PWs)   bands (ev):

   -17.0786 -16.9278 -16.7538 -16.7080  -7.5992  -7.5696  -7.3291  -7.1234
    -6.8503  -6.7457  -6.5791  -6.4651  -2.6001  -2.5764  -2.0545  -1.9784
     4.3037   5.5621   5.8141   6.6662

          k =-0.3667 0.0000-0.3667 (  7363 PWs)   bands (ev):

   -17.0601 -16.9355 -16.7566 -16.7161  -7.5976  -7.5710  -7.3234  -7.1556
    -6.8353  -6.7450  -6.5686  -6.4723  -2.6001  -2.5794  -2.0469  -1.9862
     4.4381   5.5522   5.7695   6.5553

          k =-0.3833 0.0000-0.3833 (  7353 PWs)   bands (ev):

   -17.0423 -16.9425 -16.7592 -16.7246  -7.5956  -7.5726  -7.3186  -7.1860
    -6.8193  -6.7442  -6.5589  -6.4801  -2.5992  -2.5819  -2.0399  -1.9931
     4.5734   5.5426   5.7257   6.4377

          k =-0.4000 0.0000-0.4000 (  7347 PWs)   bands (ev):

   -17.0253 -16.9486 -16.7616 -16.7333  -7.5931  -7.5743  -7.3146  -7.2142
    -6.8031  -6.7434  -6.5501  -6.4885  -2.5977  -2.5839  -2.0338  -1.9992
     4.7094   5.5337   5.6841   6.3153

          k =-0.4167 0.0000-0.4167 (  7357 PWs)   bands (ev):

   -17.0095 -16.9539 -16.7636 -16.7419  -7.5904  -7.5759  -7.3113  -7.2396
    -6.7873  -6.7427  -6.5425  -6.4970  -2.5958  -2.5856  -2.0286  -2.0044
     4.8459   5.5260   5.6459   6.1894

          k =-0.4333 0.0000-0.4333 (  7349 PWs)   bands (ev):

   -16.9953 -16.9582 -16.7653 -16.7501  -7.5874  -7.5773  -7.3088  -7.2616
    -6.7725  -6.7421  -6.5361  -6.5053  -2.5938  -2.5869  -2.0242  -2.0086
     4.9827   5.5202   5.6119   6.0606

          k =-0.4500 0.0000-0.4500 (  7343 PWs)   bands (ev):

   -16.9833 -16.9617 -16.7666 -16.7574  -7.5846  -7.5784  -7.3068  -7.2797
    -6.7597  -6.7416  -6.5311  -6.5128  -2.5920  -2.5879  -2.0207  -2.0119
     5.1195   5.5169   5.5829   5.9297

          k =-0.4667 0.0000-0.4667 (  7335 PWs)   bands (ev):

   -16.9740 -16.9641 -16.7676 -16.7632  -7.5821  -7.5792  -7.3054  -7.2932
    -6.7496  -6.7412  -6.5274  -6.5190  -2.5905  -2.5887  -2.0182  -2.0143
     5.2562   5.5167   5.5593   5.7971

          k =-0.4833 0.0000-0.4833 (  7344 PWs)   bands (ev):

   -16.9681 -16.9656 -16.7682 -16.7671  -7.5805  -7.5798  -7.3046  -7.3015
    -6.7431  -6.7409  -6.5252  -6.5230  -2.5896  -2.5891  -2.0167  -2.0158
     5.3925   5.5202   5.5411   5.6632

          k =-0.5000 0.0000-0.5000 (  7316 PWs)   bands (ev):

   -16.9661 -16.9661 -16.7684 -16.7684  -7.5799  -7.5799  -7.3044  -7.3044
    -6.7408  -6.7408  -6.5244  -6.5244  -2.5892  -2.5892  -2.0162  -2.0162
     5.5280   5.5280   5.5284   5.5284

          k =-0.4875 0.0250-0.4875 (  7344 PWs)   bands (ev):

   -16.9669 -16.9655 -16.7686 -16.7679  -7.5813  -7.5809  -7.3073  -7.3055
    -6.7395  -6.7383  -6.5237  -6.5225  -2.5882  -2.5880  -2.0169  -2.0164
     5.4252   5.5204   5.5358   5.6277

          k =-0.4750 0.0500-0.4750 (  7344 PWs)   bands (ev):

   -16.9693 -16.9637 -16.7691 -16.7665  -7.5855  -7.5838  -7.3158  -7.3088
    -6.7358  -6.7310  -6.5217  -6.5168  -2.5852  -2.5842  -2.0189  -2.0168
     5.3207   5.5126   5.5429   5.7216

          k =-0.4625 0.0750-0.4625 (  7343 PWs)   bands (ev):

   -16.9730 -16.9607 -16.7699 -16.7645  -7.5920  -7.5883  -7.3291  -7.3138
    -6.7303  -6.7195  -6.5185  -6.5075  -2.5805  -2.5780  -2.0222  -2.0174
     5.2166   5.5056   5.5498   5.8081

          k =-0.4500 0.1000-0.4500 (  7335 PWs)   bands (ev):

   -16.9777 -16.9566 -16.7711 -16.7619  -7.6006  -7.5942  -7.3461  -7.3198
    -6.7237  -6.7049  -6.5145  -6.4951  -2.5742  -2.5697  -2.0265  -2.0184
     5.1148   5.4998   5.5569   5.8849

          k =-0.4375 0.1250-0.4375 (  7330 PWs)   bands (ev):

   -16.9832 -16.9514 -16.7727 -16.7592  -7.6106  -7.6012  -7.3659  -7.3261
    -6.7166  -6.6879  -6.5102  -6.4804  -2.5667  -2.5595  -2.0317  -2.0196
     5.0172   5.4959   5.5651   5.9498

          k =-0.4250 0.1500-0.4250 (  7343 PWs)   bands (ev):

   -16.9890 -16.9453 -16.7748 -16.7566  -7.6211  -7.6088  -7.3871  -7.3323
    -6.7096  -6.6696  -6.5061  -6.4641  -2.5584  -2.5479  -2.0376  -2.0212
     4.9256   5.4944   5.5754   6.0005

          k =-0.4125 0.1750-0.4125 (  7342 PWs)   bands (ev):

   -16.9949 -16.9385 -16.7772 -16.7542  -7.6315  -7.6168  -7.4088  -7.3380
    -6.7031  -6.6505  -6.5029  -6.4474  -2.5499  -2.5354  -2.0438  -2.0231
     4.8415   5.4957   5.5892   6.0345

          k =-0.4000 0.2000-0.4000 (  7358 PWs)   bands (ev):

   -17.0005 -16.9310 -16.7802 -16.7523  -7.6409  -7.6246  -7.4299  -7.3431
    -6.6974  -6.6313  -6.5011  -6.4311  -2.5415  -2.5227  -2.0499  -2.0252
     4.7666   5.5005   5.6077   6.0495

          k =-0.3875 0.2250-0.3875 (  7336 PWs)   bands (ev):

   -17.0056 -16.9232 -16.7836 -16.7508  -7.6486  -7.6320  -7.4495  -7.3472
    -6.6925  -6.6123  -6.5012  -6.4162  -2.5337  -2.5105  -2.0558  -2.0273
     4.7023   5.5091   5.6317   6.0442

          k =-0.3750 0.2500-0.3750 (  7341 PWs)   bands (ev):

   -17.0099 -16.9155 -16.7873 -16.7498  -7.6543  -7.6387  -7.4668  -7.3505
    -6.6887  -6.5940  -6.5038  -6.4034  -2.5271  -2.4996  -2.0609  -2.0292
     4.6498   5.5220   5.6617   6.0183

          k =-0.3625 0.2417-0.3625 (  7331 PWs)   bands (ev):

   -17.0243 -16.9129 -16.7840 -16.7420  -7.6505  -7.6321  -7.4567  -7.3177
    -6.7123  -6.6063  -6.5163  -6.4026  -2.5386  -2.5073  -2.0605  -2.0206
     4.5613   5.5437   5.7149   6.0978

          k =-0.3500 0.2333-0.3500 (  7337 PWs)   bands (ev):

   -17.0390 -16.9097 -16.7806 -16.7343  -7.6466  -7.6252  -7.4471  -7.2836
    -6.7357  -6.6193  -6.5287  -6.4022  -2.5491  -2.5142  -2.0612  -2.0119
     4.4705   5.5640   5.7687   6.1782

          k =-0.3375 0.2250-0.3375 (  7333 PWs)   bands (ev):

   -17.0541 -16.9060 -16.7771 -16.7269  -7.6427  -7.6182  -7.4383  -7.2486
    -6.7583  -6.6329  -6.5408  -6.4022  -2.5582  -2.5203  -2.0629  -2.0031
     4.3777   5.5825   5.8218   6.2588

          k =-0.3250 0.2167-0.3250 (  7337 PWs)   bands (ev):

   -17.0695 -16.9018 -16.7735 -16.7197  -7.6389  -7.6111  -7.4303  -7.2127
    -6.7801  -6.6468  -6.5526  -6.4025  -2.5659  -2.5254  -2.0655  -1.9941
     4.2832   5.5991   5.8732   6.3385

          k =-0.3125 0.2083-0.3125 (  7345 PWs)   bands (ev):

   -17.0850 -16.8971 -16.7699 -16.7128  -7.6352  -7.6043  -7.4235  -7.1764
    -6.8005  -6.6609  -6.5640  -6.4032  -2.5720  -2.5296  -2.0691  -1.9850
     4.1873   5.6134   5.9217   6.4155

          k =-0.3000 0.2000-0.3000 (  7343 PWs)   bands (ev):

   -17.1006 -16.8920 -16.7663 -16.7063  -7.6317  -7.5979  -7.4179  -7.1396
    -6.8194  -6.6750  -6.5749  -6.4043  -2.5764  -2.5328  -2.0735  -1.9757
     4.0904   5.6256   5.9661   6.4868

          k =-0.2875 0.1917-0.2875 (  7346 PWs)   bands (ev):

   -17.1162 -16.8864 -16.7625 -16.7001  -7.6283  -7.5921  -7.4137  -7.1028
    -6.8363  -6.6889  -6.5853  -6.4058  -2.5790  -2.5350  -2.0789  -1.9663
     3.9928   5.6356   6.0052   6.5478

          k =-0.2750 0.1833-0.2750 (  7341 PWs)   bands (ev):

   -17.1317 -16.8803 -16.7588 -16.6944  -7.6251  -7.5872  -7.4110  -7.0660
    -6.8511  -6.7024  -6.5953  -6.4076  -2.5797  -2.5363  -2.0850  -1.9567
     3.8948   5.6434   6.0382   6.5922

          k =-0.2625 0.1750-0.2625 (  7342 PWs)   bands (ev):

   -17.1471 -16.8739 -16.7551 -16.6891  -7.6221  -7.5832  -7.4099  -7.0296
    -6.8634  -6.7151  -6.6047  -6.4098  -2.5785  -2.5365  -2.0920  -1.9470
     3.7969   5.6493   6.0644   6.6135

          k =-0.2500 0.1667-0.2500 (  7341 PWs)   bands (ev):

   -17.1623 -16.8670 -16.7514 -16.6843  -7.6194  -7.5804  -7.4105  -6.9937
    -6.8731  -6.7271  -6.6137  -6.4124  -2.5753  -2.5358  -2.0997  -1.9371
     3.6993   5.6534   6.0833   6.6104

          k =-0.2375 0.1583-0.2375 (  7339 PWs)   bands (ev):

   -17.1771 -16.8598 -16.7477 -16.6800  -7.6170  -7.5789  -7.4129  -6.9586
    -6.8799  -6.7380  -6.6221  -6.4153  -2.5703  -2.5340  -2.1081  -1.9271
     3.6026   5.6561   6.0947   6.5883

          k =-0.2250 0.1500-0.2250 (  7343 PWs)   bands (ev):

   -17.1917 -16.8523 -16.7441 -16.6762  -7.6148  -7.5786  -7.4170  -6.9249
    -6.8835  -6.7477  -6.6300  -6.4187  -2.5633  -2.5313  -2.1171  -1.9170
     3.5069   5.6576   6.0990   6.5540

          k =-0.2125 0.1417-0.2125 (  7340 PWs)   bands (ev):

   -17.2058 -16.8445 -16.7406 -16.6730  -7.6128  -7.5795  -7.4227  -6.8964
    -6.8805  -6.7561  -6.6372  -6.4225  -2.5547  -2.5276  -2.1268  -1.9070
     3.4129   5.6582   6.0966   6.5127

          k =-0.2000 0.1333-0.2000 (  7338 PWs)   bands (ev):

   -17.2195 -16.8365 -16.7371 -16.6703  -7.6111  -7.5816  -7.4301  -6.8876
    -6.8567  -6.7629  -6.6438  -6.4268  -2.5444  -2.5229  -2.1372  -1.8969
     3.3208   5.6582   6.0882   6.4673

          k =-0.1875 0.1250-0.1875 (  7337 PWs)   bands (ev):

   -17.2327 -16.8282 -16.7337 -16.6682  -7.6097  -7.5847  -7.4389  -6.8834
    -6.8288  -6.7672  -6.6496  -6.4315  -2.5327  -2.5171  -2.1480  -1.8869
     3.2311   5.6581   6.0746   6.4198

          k =-0.1750 0.1167-0.1750 (  7337 PWs)   bands (ev):

   -17.2452 -16.8198 -16.7305 -16.6666  -7.6086  -7.5885  -7.4489  -6.8777
    -6.8061  -6.7661  -6.6545  -6.4368  -2.5202  -2.5100  -2.1594  -1.8771
     3.1442   5.6581   6.0568   6.3713

          k =-0.1625 0.1083-0.1625 (  7333 PWs)   bands (ev):

   -17.2571 -16.8112 -16.7274 -16.6657  -7.6076  -7.5928  -7.4600  -6.8706
    -6.7956  -6.7533  -6.6584  -6.4426  -2.5083  -2.5003  -2.1713  -1.8676
     3.0606   5.6584   6.0358   6.3224

          k =-0.1500 0.1000-0.1500 (  7331 PWs)   bands (ev):

   -17.2684 -16.8026 -16.7245 -16.6653  -7.6070  -7.5973  -7.4720  -6.8623
    -6.7944  -6.7321  -6.6610  -6.4489  -2.4983  -2.4870  -2.1837  -1.8583
     2.9808   5.6595   6.0125   6.2738

          k =-0.1375 0.0917-0.1375 (  7324 PWs)   bands (ev):

   -17.2789 -16.7939 -16.7217 -16.6656  -7.6070  -7.6014  -7.4846  -6.8533
    -6.7955  -6.7097  -6.6622  -6.4559  -2.4889  -2.4718  -2.1965  -1.8495
     2.9051   5.6616   5.9877   6.2258

          k =-0.1250 0.0833-0.1250 (  7312 PWs)   bands (ev):

   -17.2886 -16.7851 -16.7191 -16.6665  -7.6085  -7.6039  -7.4975  -6.8441
    -6.7970  -6.6887  -6.6612  -6.4635  -2.4790  -2.4559  -2.2096  -1.8411
     2.8340   5.6649   5.9624   6.1787

          k =-0.1125 0.0750-0.1125 (  7298 PWs)   bands (ev):

   -17.2976 -16.7764 -16.7167 -16.6679  -7.6117  -7.6045  -7.5106  -6.8352
    -6.7983  -6.6717  -6.6561  -6.4718  -2.4687  -2.4400  -2.2232  -1.8333
     2.7681   5.6697   5.9371   6.1328

          k =-0.1000 0.0667-0.1000 (  7292 PWs)   bands (ev):

   -17.3056 -16.7678 -16.7146 -16.6700  -7.6149  -7.6045  -7.5236  -6.8271
    -6.7993  -6.6619  -6.6437  -6.4807  -2.4577  -2.4244  -2.2370  -1.8262
     2.7076   5.6762   5.9128   6.0884

          k =-0.0875 0.0583-0.0875 (  7287 PWs)   bands (ev):

   -17.3128 -16.7593 -16.7126 -16.6726  -7.6174  -7.6045  -7.5364  -6.8199
    -6.8000  -6.6547  -6.6287  -6.4903  -2.4461  -2.4095  -2.2511  -1.8197
     2.6531   5.6845   5.8898   6.0457

          k =-0.0750 0.0500-0.0750 (  7290 PWs)   bands (ev):

   -17.3192 -16.7509 -16.7109 -16.6758  -7.6191  -7.6045  -7.5487  -6.8140
    -6.8005  -6.6466  -6.6147  -6.5006  -2.4340  -2.3957  -2.2654  -1.8140
     2.6049   5.6949   5.8689   6.0048

          k =-0.0625 0.0417-0.0625 (  7288 PWs)   bands (ev):

   -17.3245 -16.7427 -16.7095 -16.6796  -7.6197  -7.6046  -7.5604  -6.8094
    -6.8008  -6.6370  -6.6026  -6.5116  -2.4214  -2.3834  -2.2798  -1.8092
     2.5635   5.7074   5.8504   5.9659

          k =-0.0500 0.0333-0.0500 (  7278 PWs)   bands (ev):

   -17.3289 -16.7348 -16.7083 -16.6839  -7.6192  -7.6046  -7.5712  -6.8060
    -6.8010  -6.6260  -6.5926  -6.5232  -2.4084  -2.3728  -2.2944  -1.8051
     2.5291   5.7222   5.8348   5.9291

          k =-0.0375 0.0250-0.0375 (  7271 PWs)   bands (ev):

   -17.3324 -16.7271 -16.7073 -16.6887  -7.6174  -7.6047  -7.5812  -6.8036
    -6.8010  -6.6140  -6.5847  -6.5354  -2.3949  -2.3642  -2.3090  -1.8020
     2.5020   5.7394   5.8223   5.8947

          k =-0.0250 0.0167-0.0250 (  7257 PWs)   bands (ev):

   -17.3349 -16.7197 -16.7066 -16.6941  -7.6145  -7.6047  -7.5902  -6.8021
    -6.8010  -6.6012  -6.5791  -6.5481  -2.3811  -2.3579  -2.3237  -1.7997
     2.4825   5.7590   5.8132   5.8626

          k =-0.0125 0.0083-0.0125 (  7241 PWs)   bands (ev):

   -17.3364 -16.7127 -16.7062 -16.6998  -7.6102  -7.6048  -7.5981  -6.8012
    -6.8010  -6.5879  -6.5757  -6.5612  -2.3670  -2.3540  -2.3383  -1.7983
     2.4707   5.7812   5.8077   5.8330

          k = 0.0000 0.0000 0.0000 (  7249 PWs)   bands (ev):

   -17.3369 -16.7061 -16.7061 -16.7061  -7.6048  -7.6048  -7.6048  -6.8009
    -6.8009  -6.5745  -6.5745  -6.5745  -2.3527  -2.3527  -2.3527  -1.7979
     2.4668   5.8058   5.8058   5.8058

     Writing all to output data dir ./out/AC_Ph_1.save/

     init_run     :      1.06s CPU      1.09s WALL (       1 calls)
     electrons    :     84.43s CPU     85.43s WALL (       1 calls)

     Called by init_run:
     wfcinit      :      0.00s CPU      0.00s WALL (       1 calls)
     wfcinit:atom :      0.06s CPU      0.06s WALL (      91 calls)
     wfcinit:wfcr :      4.50s CPU      4.58s WALL (      91 calls)
     potinit      :      0.17s CPU      0.17s WALL (       1 calls)
     hinit0       :      0.49s CPU      0.49s WALL (       1 calls)

     Called by electrons:
     c_bands      :     84.43s CPU     85.41s WALL (       1 calls)
     v_of_rho     :      0.05s CPU      0.06s WALL (       1 calls)
     v_h          :      0.00s CPU      0.00s WALL (       1 calls)
     v_xc         :      0.05s CPU      0.05s WALL (       1 calls)
     newd         :      0.04s CPU      0.05s WALL (       1 calls)

     Called by c_bands:
     init_us_2    :      0.04s CPU      0.05s WALL (      91 calls)
     init_us_2:cp :      0.04s CPU      0.05s WALL (      91 calls)
     cegterg      :     79.54s CPU     80.39s WALL (     204 calls)

     Called by sum_band:

     Called by *egterg:
     cdiaghg      :      4.43s CPU      4.45s WALL (    3305 calls)
     cegterg:over :     10.67s CPU     10.79s WALL (    3214 calls)
     cegterg:upda :      3.28s CPU      3.29s WALL (    3214 calls)
     cegterg:last :      8.86s CPU      8.87s WALL (    1667 calls)
     h_psi        :     48.17s CPU     48.92s WALL (    3509 calls)
     s_psi        :      5.02s CPU      5.03s WALL (    3509 calls)
     g_psi        :      0.42s CPU      0.42s WALL (    3214 calls)

     Called by h_psi:
     h_psi:calbec :      9.23s CPU      9.43s WALL (    3509 calls)
     vloc_psi     :     33.69s CPU     34.23s WALL (    3509 calls)
     add_vuspsi   :      5.04s CPU      5.06s WALL (    3509 calls)

     General routines
     calbec       :      9.22s CPU      9.42s WALL (    3509 calls)
     fft          :      0.35s CPU      0.35s WALL (      13 calls)
     ffts         :      0.11s CPU      0.11s WALL (       1 calls)
     fftw         :     30.52s CPU     30.98s WALL (   74208 calls)
     interpolate  :      0.11s CPU      0.11s WALL (       1 calls)
     davcio       :      0.04s CPU      0.05s WALL (     182 calls)

     Parallel routines

     PWSCF        :   1m26.64s CPU   1m28.26s WALL


   This run was terminated on:   6:30:53  14Dec2022            

=------------------------------------------------------------------------------=
   JOB DONE.
=------------------------------------------------------------------------------=
