
     Program BANDS v.7.1 starts on 14Dec2022 at  6:30:53 

     This program is part of the open-source Quantum ESPRESSO suite
     for quantum simulation of materials; please cite
         "P. Giannozzi et al., J. Phys.:Condens. Matter 21 395502 (2009);
         "P. Giannozzi et al., J. Phys.:Condens. Matter 29 465901 (2017);
         "P. Giannozzi et al., J. Chem. Phys. 152 154105 (2020);
          URL http://www.quantum-espresso.org", 
     in publications or presentations arising from this work. More details at
     http://www.quantum-espresso.org/quote

     Parallel version (MPI), running on    14 processors

     MPI processes distributed on     1 nodes
     R & G space division:  proc/nbgrp/npool/nimage =      14
     23038 MiB available memory on the printing compute node when the environment starts


     Reading xml data from directory:

     ./out/AC_Ph_1.save/

     IMPORTANT: XC functional enforced from input :
     Exchange-correlation= PBE
                           (   1   4   3   4   0   0   0)
     Any further DFT definition will be discarded
     Please, verify this is what you really want


     Parallelization info
     --------------------
     sticks:   dense  smooth     PW     G-vecs:    dense   smooth      PW
     Min         261     130     36                11875     4192     622
     Max         262     131     38                11878     4195     623
     Sum        3657    1829    509               166269    58701    8709

     Using Slab Decomposition


     Check: negative core charge=   -0.000001
     Reading collected, re-writing distributed wavefunctions
     high-symmetry point:  0.0000 0.5000 0.0000   x coordinate   0.0000
     high-symmetry point:  0.0000 0.0000 0.0000   x coordinate   0.5000
     high-symmetry point: -0.5000 0.0000-0.5000   x coordinate   1.2071
     high-symmetry point: -0.3750 0.2500-0.3750   x coordinate   1.5133
     high-symmetry point:  0.0000 0.0000 0.0000   x coordinate   2.0996

     Plottable bands (eV) written to file AC_bands.dat.gnu
     Bands written to file AC_bands.dat

 **************************************************************************

                    xk=(   0.00000,   0.50000,   0.00000  )

     zone border point and non-symmorphic group 
     symmetry decomposition not available

 **************************************************************************

 **************************************************************************

                    xk=(   0.00000,   0.47500,   0.00000  )

     point group C_2  (2)   
     there are  2 classes
     the character table:

       E     C2   
A      1.00  1.00
B      1.00 -1.00

     the symmetry operations in each class and the name of the first element:

     E        1
                                                                 
     C2       2
                                                                 

     Band symmetry, C_2  (2)    point group:

     e(  1 -  1) =    -17.08365  eV     1   --> A              
     e(  2 -  2) =    -17.03817  eV     1   --> B              
     e(  3 -  3) =    -16.67511  eV     1   --> A              
     e(  4 -  4) =    -16.67118  eV     1   --> B              
     e(  5 -  5) =     -7.57005  eV     1   --> B              
     e(  6 -  6) =     -7.56914  eV     1   --> A              
     e(  7 -  7) =     -7.17292  eV     1   --> B              
     e(  8 -  8) =     -7.11622  eV     1   --> A              
     e(  9 -  9) =     -6.82522  eV     1   --> B              
     e( 10 - 10) =     -6.80833  eV     1   --> A              
     e( 11 - 11) =     -6.58660  eV     1   --> A              
     e( 12 - 12) =     -6.55880  eV     1   --> B              
     e( 13 - 13) =     -2.60306  eV     1   --> B              
     e( 14 - 14) =     -2.60029  eV     1   --> A              
     e( 15 - 15) =     -2.03516  eV     1   --> B              
     e( 16 - 16) =     -2.00386  eV     1   --> A              
     e( 17 - 17) =      4.22126  eV     1   --> A              
     e( 18 - 18) =      4.49382  eV     1   --> B              
     e( 19 - 19) =      6.74805  eV     1   --> B              
     e( 20 - 20) =      6.81496  eV     1   --> A              

 **************************************************************************

 **************************************************************************

                    xk=(   0.00000,   0.45000,   0.00000  )

     Band symmetry, C_2  (2)    point group:

     e(  1 -  1) =    -17.10594  eV     1   --> A              
     e(  2 -  2) =    -17.01524  eV     1   --> B              
     e(  3 -  3) =    -16.67725  eV     1   --> A              
     e(  4 -  4) =    -16.66945  eV     1   --> B              
     e(  5 -  5) =     -7.57177  eV     1   --> B              
     e(  6 -  6) =     -7.56985  eV     1   --> A              
     e(  7 -  7) =     -7.20221  eV     1   --> B              
     e(  8 -  8) =     -7.08904  eV     1   --> A              
     e(  9 -  9) =     -6.82974  eV     1   --> B              
     e( 10 - 10) =     -6.79664  eV     1   --> A              
     e( 11 - 11) =     -6.60095  eV     1   --> A              
     e( 12 - 12) =     -6.54581  eV     1   --> B              
     e( 13 - 13) =     -2.60126  eV     1   --> B              
     e( 14 - 14) =     -2.59562  eV     1   --> A              
     e( 15 - 15) =     -2.05073  eV     1   --> B              
     e( 16 - 16) =     -1.98814  eV     1   --> A              
     e( 17 - 17) =      4.08293  eV     1   --> A              
     e( 18 - 18) =      4.62585  eV     1   --> B              
     e( 19 - 19) =      6.69588  eV     1   --> B              
     e( 20 - 20) =      6.81898  eV     1   --> A              

 **************************************************************************

 **************************************************************************

                    xk=(   0.00000,   0.42500,   0.00000  )

     Band symmetry, C_2  (2)    point group:

     e(  1 -  1) =    -17.12777  eV     1   --> A              
     e(  2 -  2) =    -16.99233  eV     1   --> B              
     e(  3 -  3) =    -16.67947  eV     1   --> A              
     e(  4 -  4) =    -16.66791  eV     1   --> B              
     e(  5 -  5) =     -7.57435  eV     1   --> B              
     e(  6 -  6) =     -7.57122  eV     1   --> A              
     e(  7 -  7) =     -7.23192  eV     1   --> B              
     e(  8 -  8) =     -7.06273  eV     1   --> A              
     e(  9 -  9) =     -6.83138  eV     1   --> B              
     e( 10 - 10) =     -6.78342  eV     1   --> A              
     e( 11 - 11) =     -6.61523  eV     1   --> A              
     e( 12 - 12) =     -6.53370  eV     1   --> B              
     e( 13 - 13) =     -2.59747  eV     1   --> B              
     e( 14 - 14) =     -2.58873  eV     1   --> A              
     e( 15 - 15) =     -2.06627  eV     1   --> B              
     e( 16 - 16) =     -1.97242  eV     1   --> A              
     e( 17 - 17) =      3.94461  eV     1   --> A              
     e( 18 - 18) =      4.75352  eV     1   --> B              
     e( 19 - 19) =      6.63732  eV     1   --> B              
     e( 20 - 20) =      6.79859  eV     1   --> A              

 **************************************************************************

 **************************************************************************

                    xk=(   0.00000,   0.40000,   0.00000  )

     Band symmetry, C_2  (2)    point group:

     e(  1 -  1) =    -17.14903  eV     1   --> A              
     e(  2 -  2) =    -16.96959  eV     1   --> B              
     e(  3 -  3) =    -16.68175  eV     1   --> A              
     e(  4 -  4) =    -16.66660  eV     1   --> B              
     e(  5 -  5) =     -7.57774  eV     1   --> B              
     e(  6 -  6) =     -7.57313  eV     1   --> A              
     e(  7 -  7) =     -7.26184  eV     1   --> B              
     e(  8 -  8) =     -7.03731  eV     1   --> A              
     e(  9 -  9) =     -6.83008  eV     1   --> B              
     e( 10 - 10) =     -6.76936  eV     1   --> A              
     e( 11 - 11) =     -6.62904  eV     1   --> A              
     e( 12 - 12) =     -6.52266  eV     1   --> B              
     e( 13 - 13) =     -2.59180  eV     1   --> B              
     e( 14 - 14) =     -2.57964  eV     1   --> A              
     e( 15 - 15) =     -2.08181  eV     1   --> B              
     e( 16 - 16) =     -1.95673  eV     1   --> A              
     e( 17 - 17) =      3.80729  eV     1   --> A              
     e( 18 - 18) =      4.87567  eV     1   --> B              
     e( 19 - 19) =      6.57556  eV     1   --> B              
     e( 20 - 20) =      6.75501  eV     1   --> A              

 **************************************************************************

 **************************************************************************

                    xk=(   0.00000,   0.37500,   0.00000  )

     Band symmetry, C_2  (2)    point group:

     e(  1 -  1) =    -17.16960  eV     1   --> A              
     e(  2 -  2) =    -16.94712  eV     1   --> B              
     e(  3 -  3) =    -16.68405  eV     1   --> A              
     e(  4 -  4) =    -16.66552  eV     1   --> B              
     e(  5 -  5) =     -7.58180  eV     1   --> B              
     e(  6 -  6) =     -7.57545  eV     1   --> A              
     e(  7 -  7) =     -7.29172  eV     1   --> B              
     e(  8 -  8) =     -7.01279  eV     1   --> A              
     e(  9 -  9) =     -6.82585  eV     1   --> B              
     e( 10 - 10) =     -6.75535  eV     1   --> A              
     e( 11 - 11) =     -6.64175  eV     1   --> A              
     e( 12 - 12) =     -6.51281  eV     1   --> B              
     e( 13 - 13) =     -2.58436  eV     1   --> B              
     e( 14 - 14) =     -2.56841  eV     1   --> A              
     e( 15 - 15) =     -2.09736  eV     1   --> B              
     e( 16 - 16) =     -1.94113  eV     1   --> A              
     e( 17 - 17) =      3.67195  eV     1   --> A              
     e( 18 - 18) =      4.99111  eV     1   --> B              
     e( 19 - 19) =      6.51290  eV     1   --> B              
     e( 20 - 20) =      6.69288  eV     1   --> A              

 **************************************************************************

 **************************************************************************

                    xk=(   0.00000,   0.35000,   0.00000  )

     Band symmetry, C_2  (2)    point group:

     e(  1 -  1) =    -17.18938  eV     1   --> A              
     e(  2 -  2) =    -16.92505  eV     1   --> B              
     e(  3 -  3) =    -16.68635  eV     1   --> A              
     e(  4 -  4) =    -16.66474  eV     1   --> B              
     e(  5 -  5) =     -7.58644  eV     1   --> B              
     e(  6 -  6) =     -7.57807  eV     1   --> A              
     e(  7 -  7) =     -7.32136  eV     1   --> B              
     e(  8 -  8) =     -6.98920  eV     1   --> A              
     e(  9 -  9) =     -6.81884  eV     1   --> B              
     e( 10 - 10) =     -6.74278  eV     1   --> A              
     e( 11 - 11) =     -6.65230  eV     1   --> A              
     e( 12 - 12) =     -6.50435  eV     1   --> B              
     e( 13 - 13) =     -2.57530  eV     1   --> B              
     e( 14 - 14) =     -2.55519  eV     1   --> A              
     e( 15 - 15) =     -2.11297  eV     1   --> B              
     e( 16 - 16) =     -1.92574  eV     1   --> A              
     e( 17 - 17) =      3.53951  eV     1   --> A              
     e( 18 - 18) =      5.09871  eV     1   --> B              
     e( 19 - 19) =      6.45094  eV     1   --> B              
     e( 20 - 20) =      6.61787  eV     1   --> A              

 **************************************************************************

 **************************************************************************

                    xk=(   0.00000,   0.32500,   0.00000  )

     Band symmetry, C_2  (2)    point group:

     e(  1 -  1) =    -17.20826  eV     1   --> A              
     e(  2 -  2) =    -16.90349  eV     1   --> B              
     e(  3 -  3) =    -16.68863  eV     1   --> A              
     e(  4 -  4) =    -16.66427  eV     1   --> B              
     e(  5 -  5) =     -7.59149  eV     1   --> B              
     e(  6 -  6) =     -7.58091  eV     1   --> A              
     e(  7 -  7) =     -7.35051  eV     1   --> B              
     e(  8 -  8) =     -6.96658  eV     1   --> A              
     e(  9 -  9) =     -6.80923  eV     1   --> B              
     e( 10 - 10) =     -6.73382  eV     1   --> A              
     e( 11 - 11) =     -6.65880  eV     1   --> A              
     e( 12 - 12) =     -6.49741  eV     1   --> B              
     e( 13 - 13) =     -2.56477  eV     1   --> B              
     e( 14 - 14) =     -2.54016  eV     1   --> A              
     e( 15 - 15) =     -2.12871  eV     1   --> B              
     e( 16 - 16) =     -1.91065  eV     1   --> A              
     e( 17 - 17) =      3.41089  eV     1   --> A              
     e( 18 - 18) =      5.19746  eV     1   --> B              
     e( 19 - 19) =      6.39076  eV     1   --> B              
     e( 20 - 20) =      6.53505  eV     1   --> A              

 **************************************************************************

 **************************************************************************

                    xk=(   0.00000,   0.30000,   0.00000  )

     Band symmetry, C_2  (2)    point group:

     e(  1 -  1) =    -17.22615  eV     1   --> A              
     e(  2 -  2) =    -16.88256  eV     1   --> B              
     e(  3 -  3) =    -16.69086  eV     1   --> A              
     e(  4 -  4) =    -16.66414  eV     1   --> B              
     e(  5 -  5) =     -7.59676  eV     1   --> B              
     e(  6 -  6) =     -7.58382  eV     1   --> A              
     e(  7 -  7) =     -7.37894  eV     1   --> B              
     e(  8 -  8) =     -6.94494  eV     1   --> A              
     e(  9 -  9) =     -6.79723  eV     1   --> B              
     e( 10 - 10) =     -6.73093  eV     1   --> A              
     e( 11 - 11) =     -6.65902  eV     1   --> A              
     e( 12 - 12) =     -6.49211  eV     1   --> B              
     e( 13 - 13) =     -2.55290  eV     1   --> B              
     e( 14 - 14) =     -2.52352  eV     1   --> A              
     e( 15 - 15) =     -2.14457  eV     1   --> B              
     e( 16 - 16) =     -1.89597  eV     1   --> A              
     e( 17 - 17) =      3.28698  eV     1   --> A              
     e( 18 - 18) =      5.28653  eV     1   --> B              
     e( 19 - 19) =      6.33306  eV     1   --> B              
     e( 20 - 20) =      6.44853  eV     1   --> A              

 **************************************************************************

 **************************************************************************

                    xk=(   0.00000,   0.27500,   0.00000  )

     Band symmetry, C_2  (2)    point group:

     e(  1 -  1) =    -17.24295  eV     1   --> A              
     e(  2 -  2) =    -16.86235  eV     1   --> B              
     e(  3 -  3) =    -16.69302  eV     1   --> A              
     e(  4 -  4) =    -16.66440  eV     1   --> B              
     e(  5 -  5) =     -7.60203  eV     1   --> B              
     e(  6 -  6) =     -7.58673  eV     1   --> A              
     e(  7 -  7) =     -7.40644  eV     1   --> B              
     e(  8 -  8) =     -6.92436  eV     1   --> A              
     e(  9 -  9) =     -6.78312  eV     1   --> B              
     e( 10 - 10) =     -6.73437  eV     1   --> A              
     e( 11 - 11) =     -6.65294  eV     1   --> A              
     e( 12 - 12) =     -6.48858  eV     1   --> B              
     e( 13 - 13) =     -2.53985  eV     1   --> B              
     e( 14 - 14) =     -2.50561  eV     1   --> A              
     e( 15 - 15) =     -2.16064  eV     1   --> B              
     e( 16 - 16) =     -1.88185  eV     1   --> A              
     e( 17 - 17) =      3.16868  eV     1   --> A              
     e( 18 - 18) =      5.36542  eV     1   --> B              
     e( 19 - 19) =      6.27811  eV     1   --> B              
     e( 20 - 20) =      6.36142  eV     1   --> A              

 **************************************************************************

 **************************************************************************

                    xk=(   0.00000,   0.25000,   0.00000  )

     Band symmetry, C_2  (2)    point group:

     e(  1 -  1) =    -17.25859  eV     1   --> A              
     e(  2 -  2) =    -16.84296  eV     1   --> B              
     e(  3 -  3) =    -16.69507  eV     1   --> A              
     e(  4 -  4) =    -16.66508  eV     1   --> B              
     e(  5 -  5) =     -7.60710  eV     1   --> B              
     e(  6 -  6) =     -7.58956  eV     1   --> A              
     e(  7 -  7) =     -7.43280  eV     1   --> B              
     e(  8 -  8) =     -6.90493  eV     1   --> A              
     e(  9 -  9) =     -6.76720  eV     1   --> B              
     e( 10 - 10) =     -6.74171  eV     1   --> A              
     e( 11 - 11) =     -6.64310  eV     1   --> A              
     e( 12 - 12) =     -6.48688  eV     1   --> B              
     e( 13 - 13) =     -2.52574  eV     1   --> B              
     e( 14 - 14) =     -2.48676  eV     1   --> A              
     e( 15 - 15) =     -2.17691  eV     1   --> B              
     e( 16 - 16) =     -1.86842  eV     1   --> A              
     e( 17 - 17) =      3.05685  eV     1   --> A              
     e( 18 - 18) =      5.43406  eV     1   --> B              
     e( 19 - 19) =      6.22591  eV     1   --> B              
     e( 20 - 20) =      6.27617  eV     1   --> A              

 **************************************************************************

 **************************************************************************

                    xk=(   0.00000,   0.22500,   0.00000  )

     Band symmetry, C_2  (2)    point group:

     e(  1 -  1) =    -17.27297  eV     1   --> A              
     e(  2 -  2) =    -16.82447  eV     1   --> B              
     e(  3 -  3) =    -16.69701  eV     1   --> A              
     e(  4 -  4) =    -16.66623  eV     1   --> B              
     e(  5 -  5) =     -7.61174  eV     1   --> B              
     e(  6 -  6) =     -7.59224  eV     1   --> A              
     e(  7 -  7) =     -7.45782  eV     1   --> B              
     e(  8 -  8) =     -6.88673  eV     1   --> A              
     e(  9 -  9) =     -6.75063  eV     1   --> A              
     e( 10 - 10) =     -6.74976  eV     1   --> B              
     e( 11 - 11) =     -6.63191  eV     1   --> A              
     e( 12 - 12) =     -6.48708  eV     1   --> B              
     e( 13 - 13) =     -2.51069  eV     1   --> B              
     e( 14 - 14) =     -2.46738  eV     1   --> A              
     e( 15 - 15) =     -2.19341  eV     1   --> B              
     e( 16 - 16) =     -1.85581  eV     1   --> A              
     e( 17 - 17) =      2.95237  eV     1   --> A              
     e( 18 - 18) =      5.49286  eV     1   --> B              
     e( 19 - 19) =      6.17622  eV     1   --> B              
     e( 20 - 20) =      6.19468  eV     1   --> A              

 **************************************************************************

 **************************************************************************

                    xk=(   0.00000,   0.20000,   0.00000  )

     Band symmetry, C_2  (2)    point group:

     e(  1 -  1) =    -17.28603  eV     1   --> A              
     e(  2 -  2) =    -16.80695  eV     1   --> B              
     e(  3 -  3) =    -16.69880  eV     1   --> A              
     e(  4 -  4) =    -16.66789  eV     1   --> B              
     e(  5 -  5) =     -7.61577  eV     1   --> B              
     e(  6 -  6) =     -7.59475  eV     1   --> A              
     e(  7 -  7) =     -7.48135  eV     1   --> B              
     e(  8 -  8) =     -6.86992  eV     1   --> A              
     e(  9 -  9) =     -6.75986  eV     1   --> A              
     e( 10 - 10) =     -6.73111  eV     1   --> B              
     e( 11 - 11) =     -6.62076  eV     1   --> A              
     e( 12 - 12) =     -6.48925  eV     1   --> B              
     e( 13 - 13) =     -2.49487  eV     1   --> B              
     e( 14 - 14) =     -2.44796  eV     1   --> A              
     e( 15 - 15) =     -2.21017  eV     1   --> B              
     e( 16 - 16) =     -1.84419  eV     1   --> A              
     e( 17 - 17) =      2.85606  eV     1   --> A              
     e( 18 - 18) =      5.54277  eV     1   --> B              
     e( 19 - 19) =      6.11845  eV     1   --> A              
     e( 20 - 20) =      6.12867  eV     1   --> B              

 **************************************************************************

 **************************************************************************

                    xk=(   0.00000,   0.17500,   0.00000  )

     Band symmetry, C_2  (2)    point group:

     e(  1 -  1) =    -17.29772  eV     1   --> A              
     e(  2 -  2) =    -16.79047  eV     1   --> B              
     e(  3 -  3) =    -16.70043  eV     1   --> A              
     e(  4 -  4) =    -16.67011  eV     1   --> B              
     e(  5 -  5) =     -7.61898  eV     1   --> B              
     e(  6 -  6) =     -7.59703  eV     1   --> A              
     e(  7 -  7) =     -7.50329  eV     1   --> B              
     e(  8 -  8) =     -6.85462  eV     1   --> A              
     e(  9 -  9) =     -6.76873  eV     1   --> A              
     e( 10 - 10) =     -6.71159  eV     1   --> B              
     e( 11 - 11) =     -6.61036  eV     1   --> A              
     e( 12 - 12) =     -6.49341  eV     1   --> B              
     e( 13 - 13) =     -2.47838  eV     1   --> B              
     e( 14 - 14) =     -2.42904  eV     1   --> A              
     e( 15 - 15) =     -2.22723  eV     1   --> B              
     e( 16 - 16) =     -1.83368  eV     1   --> A              
     e( 17 - 17) =      2.76875  eV     1   --> A              
     e( 18 - 18) =      5.58518  eV     1   --> B              
     e( 19 - 19) =      6.04872  eV     1   --> A              
     e( 20 - 20) =      6.08289  eV     1   --> B              

 **************************************************************************

 **************************************************************************

                    xk=(   0.00000,   0.15000,   0.00000  )

     Band symmetry, C_2  (2)    point group:

     e(  1 -  1) =    -17.30796  eV     1   --> A              
     e(  2 -  2) =    -16.77507  eV     1   --> B              
     e(  3 -  3) =    -16.70188  eV     1   --> A              
     e(  4 -  4) =    -16.67295  eV     1   --> B              
     e(  5 -  5) =     -7.62117  eV     1   --> B              
     e(  6 -  6) =     -7.59904  eV     1   --> A              
     e(  7 -  7) =     -7.52347  eV     1   --> B              
     e(  8 -  8) =     -6.84097  eV     1   --> A              
     e(  9 -  9) =     -6.77684  eV     1   --> A              
     e( 10 - 10) =     -6.69147  eV     1   --> B              
     e( 11 - 11) =     -6.60102  eV     1   --> A              
     e( 12 - 12) =     -6.49955  eV     1   --> B              
     e( 13 - 13) =     -2.46133  eV     1   --> B              
     e( 14 - 14) =     -2.41108  eV     1   --> A              
     e( 15 - 15) =     -2.24452  eV     1   --> B              
     e( 16 - 16) =     -1.82437  eV     1   --> A              
     e( 17 - 17) =      2.69123  eV     1   --> A              
     e( 18 - 18) =      5.62177  eV     1   --> B              
     e( 19 - 19) =      5.98649  eV     1   --> A              
     e( 20 - 20) =      6.03860  eV     1   --> B              

 **************************************************************************

 **************************************************************************

                    xk=(   0.00000,   0.12500,   0.00000  )

     Band symmetry, C_2  (2)    point group:

     e(  1 -  1) =    -17.31671  eV     1   --> A              
     e(  2 -  2) =    -16.76078  eV     1   --> B              
     e(  3 -  3) =    -16.70314  eV     1   --> A              
     e(  4 -  4) =    -16.67645  eV     1   --> B              
     e(  5 -  5) =     -7.62220  eV     1   --> B              
     e(  6 -  6) =     -7.60077  eV     1   --> A              
     e(  7 -  7) =     -7.54183  eV     1   --> B              
     e(  8 -  8) =     -6.82911  eV     1   --> A              
     e(  9 -  9) =     -6.78397  eV     1   --> A              
     e( 10 - 10) =     -6.67108  eV     1   --> B              
     e( 11 - 11) =     -6.59300  eV     1   --> A              
     e( 12 - 12) =     -6.50765  eV     1   --> B              
     e( 13 - 13) =     -2.44384  eV     1   --> B              
     e( 14 - 14) =     -2.39469  eV     1   --> A              
     e( 15 - 15) =     -2.26208  eV     1   --> B              
     e( 16 - 16) =     -1.81638  eV     1   --> A              
     e( 17 - 17) =      2.62422  eV     1   --> A              
     e( 18 - 18) =      5.65429  eV     1   --> B              
     e( 19 - 19) =      5.93256  eV     1   --> A              
     e( 20 - 20) =      5.99568  eV     1   --> B              

 **************************************************************************

 **************************************************************************

                    xk=(   0.00000,   0.10000,   0.00000  )

     Band symmetry, C_2  (2)    point group:

     e(  1 -  1) =    -17.32392  eV     1   --> A              
     e(  2 -  2) =    -16.74761  eV     1   --> B              
     e(  3 -  3) =    -16.70418  eV     1   --> A              
     e(  4 -  4) =    -16.68068  eV     1   --> B              
     e(  5 -  5) =     -7.62189  eV     1   --> B              
     e(  6 -  6) =     -7.60220  eV     1   --> A              
     e(  7 -  7) =     -7.55829  eV     1   --> B              
     e(  8 -  8) =     -6.81917  eV     1   --> A              
     e(  9 -  9) =     -6.78996  eV     1   --> A              
     e( 10 - 10) =     -6.65068  eV     1   --> B              
     e( 11 - 11) =     -6.58637  eV     1   --> A              
     e( 12 - 12) =     -6.51763  eV     1   --> B              
     e( 13 - 13) =     -2.42598  eV     1   --> B              
     e( 14 - 14) =     -2.38037  eV     1   --> A              
     e( 15 - 15) =     -2.27986  eV     1   --> B              
     e( 16 - 16) =     -1.80976  eV     1   --> A              
     e( 17 - 17) =      2.56840  eV     1   --> A              
     e( 18 - 18) =      5.68442  eV     1   --> B              
     e( 19 - 19) =      5.88759  eV     1   --> A              
     e( 20 - 20) =      5.95418  eV     1   --> B              

 **************************************************************************

 **************************************************************************

                    xk=(   0.00000,   0.07500,   0.00000  )

     Band symmetry, C_2  (2)    point group:

     e(  1 -  1) =    -17.32957  eV     1   --> A              
     e(  2 -  2) =    -16.73558  eV     1   --> B              
     e(  3 -  3) =    -16.70501  eV     1   --> A              
     e(  4 -  4) =    -16.68570  eV     1   --> B              
     e(  5 -  5) =     -7.62012  eV     1   --> B              
     e(  6 -  6) =     -7.60332  eV     1   --> A              
     e(  7 -  7) =     -7.57282  eV     1   --> B              
     e(  8 -  8) =     -6.81129  eV     1   --> A              
     e(  9 -  9) =     -6.79473  eV     1   --> A              
     e( 10 - 10) =     -6.63058  eV     1   --> B              
     e( 11 - 11) =     -6.58120  eV     1   --> A              
     e( 12 - 12) =     -6.52943  eV     1   --> B              
     e( 13 - 13) =     -2.40786  eV     1   --> B              
     e( 14 - 14) =     -2.36865  eV     1   --> A              
     e( 15 - 15) =     -2.29786  eV     1   --> B              
     e( 16 - 16) =     -1.80459  eV     1   --> A              
     e( 17 - 17) =      2.52433  eV     1   --> A              
     e( 18 - 18) =      5.71363  eV     1   --> B              
     e( 19 - 19) =      5.85209  eV     1   --> A              
     e( 20 - 20) =      5.91425  eV     1   --> B              

 **************************************************************************

 **************************************************************************

                    xk=(   0.00000,   0.05000,   0.00000  )

     Band symmetry, C_2  (2)    point group:

     e(  1 -  1) =    -17.33362  eV     1   --> A              
     e(  2 -  2) =    -16.72466  eV     1   --> B              
     e(  3 -  3) =    -16.70560  eV     1   --> A              
     e(  4 -  4) =    -16.69157  eV     1   --> B              
     e(  5 -  5) =     -7.61674  eV     1   --> B              
     e(  6 -  6) =     -7.60413  eV     1   --> A              
     e(  7 -  7) =     -7.58541  eV     1   --> B              
     e(  8 -  8) =     -6.80558  eV     1   --> A              
     e(  9 -  9) =     -6.79818  eV     1   --> A              
     e( 10 - 10) =     -6.61104  eV     1   --> B              
     e( 11 - 11) =     -6.57750  eV     1   --> A              
     e( 12 - 12) =     -6.54295  eV     1   --> B              
     e( 13 - 13) =     -2.38957  eV     1   --> B              
     e( 14 - 14) =     -2.35994  eV     1   --> A              
     e( 15 - 15) =     -2.31604  eV     1   --> B              
     e( 16 - 16) =     -1.80087  eV     1   --> A              
     e( 17 - 17) =      2.49250  eV     1   --> A              
     e( 18 - 18) =      5.74308  eV     1   --> B              
     e( 19 - 19) =      5.82646  eV     1   --> A              
     e( 20 - 20) =      5.87611  eV     1   --> B              

 **************************************************************************

 **************************************************************************

                    xk=(   0.00000,   0.02500,   0.00000  )

     Band symmetry, C_2  (2)    point group:

     e(  1 -  1) =    -17.33606  eV     1   --> A              
     e(  2 -  2) =    -16.71484  eV     1   --> B              
     e(  3 -  3) =    -16.70596  eV     1   --> A              
     e(  4 -  4) =    -16.69834  eV     1   --> B              
     e(  5 -  5) =     -7.61164  eV     1   --> B              
     e(  6 -  6) =     -7.60460  eV     1   --> A              
     e(  7 -  7) =     -7.59603  eV     1   --> B              
     e(  8 -  8) =     -6.80210  eV     1   --> A              
     e(  9 -  9) =     -6.80024  eV     1   --> A              
     e( 10 - 10) =     -6.59226  eV     1   --> B              
     e( 11 - 11) =     -6.57526  eV     1   --> A              
     e( 12 - 12) =     -6.55802  eV     1   --> B              
     e( 13 - 13) =     -2.37116  eV     1   --> B              
     e( 14 - 14) =     -2.35454  eV     1   --> A              
     e( 15 - 15) =     -2.33434  eV     1   --> B              
     e( 16 - 16) =     -1.79862  eV     1   --> A              
     e( 17 - 17) =      2.47325  eV     1   --> A              
     e( 18 - 18) =      5.77361  eV     1   --> B              
     e( 19 - 19) =      5.81098  eV     1   --> A              
     e( 20 - 20) =      5.83994  eV     1   --> B              

 **************************************************************************

 **************************************************************************

                    xk=(   0.00000,   0.00000,   0.00000  )

     point group T    (23)  
     there are  4 classes
     the character table:

       E     3C2   4C3   4C3' 
A      1.00  1.00  1.00  1.00
E      1.00  1.00 -0.50 -0.50
E*     1.00  1.00 -0.50 -0.50
T      3.00 -1.00  0.00  0.00
     imaginary part
A      0.00  0.00  0.00  0.00
E      0.00  0.00  0.87 -0.87
E*     0.00  0.00 -0.87  0.87
T      0.00  0.00  0.00  0.00

     the symmetry operations in each class and the name of the first element:

     E        1
                                                                 
     3C2      2    3    4
                                                                 
     4C3      9   12   10   11
                                                                 
     4C3'     5    7    8    6
                                                                 

     Band symmetry, T    (23)   point group:

     e(  1 -  1) =    -17.33688  eV     1   --> A              
     e(  2 -  4) =    -16.70608  eV     3   --> T              
     e(  5 -  7) =     -7.60478  eV     3   --> T              
     e(  8 -  9) =     -6.80095  eV     2   --> E              
     e(  8 -  9) =     -6.80095  eV     2   --> E*             
     e( 10 - 12) =     -6.57454  eV     3   --> T              
     e( 13 - 15) =     -2.35275  eV     3   --> T              
     e( 16 - 16) =     -1.79788  eV     1   --> A              
     e( 17 - 17) =      2.46681  eV     1   --> A              
     e( 18 - 20) =      5.80580  eV     3   --> T              

 **************************************************************************

 **************************************************************************

                    xk=(  -0.01667,   0.00000,  -0.01667  )

     point group C_1 (1)    
     there are  1 classes
     the character table:

       E    
A      1.00

     the symmetry operations in each class and the name of the first element:

     E        1
                                                                 

     Band symmetry, C_1 (1)     point group:

     e(  1 -  1) =    -17.33615  eV     1   --> A              
     e(  2 -  2) =    -16.71418  eV     1   --> A              
     e(  3 -  3) =    -16.70621  eV     1   --> A              
     e(  4 -  4) =    -16.69864  eV     1   --> A              
     e(  5 -  5) =     -7.61123  eV     1   --> A              
     e(  6 -  6) =     -7.60473  eV     1   --> A              
     e(  7 -  7) =     -7.59655  eV     1   --> A              
     e(  8 -  8) =     -6.80157  eV     1   --> A              
     e(  9 -  9) =     -6.80073  eV     1   --> A              
     e( 10 - 10) =     -6.59080  eV     1   --> A              
     e( 11 - 11) =     -6.57596  eV     1   --> A              
     e( 12 - 12) =     -6.55856  eV     1   --> A              
     e( 13 - 13) =     -2.37000  eV     1   --> A              
     e( 14 - 14) =     -2.35456  eV     1   --> A              
     e( 15 - 15) =     -2.33529  eV     1   --> A              
     e( 16 - 16) =     -1.79853  eV     1   --> A              
     e( 17 - 17) =      2.47253  eV     1   --> A              
     e( 18 - 18) =      5.77618  eV     1   --> A              
     e( 19 - 19) =      5.80889  eV     1   --> A              
     e( 20 - 20) =      5.83868  eV     1   --> A              

 **************************************************************************

 **************************************************************************

                    xk=(  -0.03333,   0.00000,  -0.03333  )

     Band symmetry, C_1 (1)     point group:

     e(  1 -  1) =    -17.33398  eV     1   --> A              
     e(  2 -  2) =    -16.72290  eV     1   --> A              
     e(  3 -  3) =    -16.70662  eV     1   --> A              
     e(  4 -  4) =    -16.69190  eV     1   --> A              
     e(  5 -  5) =     -7.61593  eV     1   --> A              
     e(  6 -  6) =     -7.60460  eV     1   --> A              
     e(  7 -  7) =     -7.58665  eV     1   --> A              
     e(  8 -  8) =     -6.80347  eV     1   --> A              
     e(  9 -  9) =     -6.80014  eV     1   --> A              
     e( 10 - 10) =     -6.60705  eV     1   --> A              
     e( 11 - 11) =     -6.58029  eV     1   --> A              
     e( 12 - 12) =     -6.54317  eV     1   --> A              
     e( 13 - 13) =     -2.38699  eV     1   --> A              
     e( 14 - 14) =     -2.35999  eV     1   --> A              
     e( 15 - 15) =     -2.31775  eV     1   --> A              
     e( 16 - 16) =     -1.80053  eV     1   --> A              
     e( 17 - 17) =      2.48963  eV     1   --> A              
     e( 18 - 18) =      5.74976  eV     1   --> A              
     e( 19 - 19) =      5.81802  eV     1   --> A              
     e( 20 - 20) =      5.87487  eV     1   --> A              

 **************************************************************************

 **************************************************************************

                    xk=(  -0.05000,   0.00000,  -0.05000  )

     Band symmetry, C_1 (1)     point group:

     e(  1 -  1) =    -17.33038  eV     1   --> A              
     e(  2 -  2) =    -16.73222  eV     1   --> A              
     e(  3 -  3) =    -16.70730  eV     1   --> A              
     e(  4 -  4) =    -16.68587  eV     1   --> A              
     e(  5 -  5) =     -7.61887  eV     1   --> A              
     e(  6 -  6) =     -7.60440  eV     1   --> A              
     e(  7 -  7) =     -7.57516  eV     1   --> A              
     e(  8 -  8) =     -6.80672  eV     1   --> A              
     e(  9 -  9) =     -6.79920  eV     1   --> A              
     e( 10 - 10) =     -6.62287  eV     1   --> A              
     e( 11 - 11) =     -6.58740  eV     1   --> A              
     e( 12 - 12) =     -6.52854  eV     1   --> A              
     e( 13 - 13) =     -2.40361  eV     1   --> A              
     e( 14 - 14) =     -2.36875  eV     1   --> A              
     e( 15 - 15) =     -2.30020  eV     1   --> A              
     e( 16 - 16) =     -1.80383  eV     1   --> A              
     e( 17 - 17) =      2.51790  eV     1   --> A              
     e( 18 - 18) =      5.72644  eV     1   --> A              
     e( 19 - 19) =      5.83279  eV     1   --> A              
     e( 20 - 20) =      5.91445  eV     1   --> A              

 **************************************************************************

 **************************************************************************

                    xk=(  -0.06667,   0.00000,  -0.06667  )

     Band symmetry, C_1 (1)     point group:

     e(  1 -  1) =    -17.32537  eV     1   --> A              
     e(  2 -  2) =    -16.74208  eV     1   --> A              
     e(  3 -  3) =    -16.70824  eV     1   --> A              
     e(  4 -  4) =    -16.68057  eV     1   --> A              
     e(  5 -  5) =     -7.62011  eV     1   --> A              
     e(  6 -  6) =     -7.60411  eV     1   --> A              
     e(  7 -  7) =     -7.56221  eV     1   --> A              
     e(  8 -  8) =     -6.81142  eV     1   --> A              
     e(  9 -  9) =     -6.79798  eV     1   --> A              
     e( 10 - 10) =     -6.63779  eV     1   --> A              
     e( 11 - 11) =     -6.59718  eV     1   --> A              
     e( 12 - 12) =     -6.51485  eV     1   --> A              
     e( 13 - 13) =     -2.41978  eV     1   --> A              
     e( 14 - 14) =     -2.38051  eV     1   --> A              
     e( 15 - 15) =     -2.28273  eV     1   --> A              
     e( 16 - 16) =     -1.80841  eV     1   --> A              
     e( 17 - 17) =      2.55701  eV     1   --> A              
     e( 18 - 18) =      5.70611  eV     1   --> A              
     e( 19 - 19) =      5.85251  eV     1   --> A              
     e( 20 - 20) =      5.95750  eV     1   --> A              

 **************************************************************************

 **************************************************************************

                    xk=(  -0.08333,   0.00000,  -0.08333  )

     Band symmetry, C_1 (1)     point group:

     e(  1 -  1) =    -17.31896  eV     1   --> A              
     e(  2 -  2) =    -16.75242  eV     1   --> A              
     e(  3 -  3) =    -16.70945  eV     1   --> A              
     e(  4 -  4) =    -16.67601  eV     1   --> A              
     e(  5 -  5) =     -7.61977  eV     1   --> A              
     e(  6 -  6) =     -7.60375  eV     1   --> A              
     e(  7 -  7) =     -7.54797  eV     1   --> A              
     e(  8 -  8) =     -6.81770  eV     1   --> A              
     e(  9 -  9) =     -6.79666  eV     1   --> A              
     e( 10 - 10) =     -6.65132  eV     1   --> A              
     e( 11 - 11) =     -6.60946  eV     1   --> A              
     e( 12 - 12) =     -6.50220  eV     1   --> A              
     e( 13 - 13) =     -2.43544  eV     1   --> A              
     e( 14 - 14) =     -2.39481  eV     1   --> A              
     e( 15 - 15) =     -2.26541  eV     1   --> A              
     e( 16 - 16) =     -1.81423  eV     1   --> A              
     e( 17 - 17) =      2.60649  eV     1   --> A              
     e( 18 - 18) =      5.68862  eV     1   --> A              
     e( 19 - 19) =      5.87621  eV     1   --> A              
     e( 20 - 20) =      6.00418  eV     1   --> A              

 **************************************************************************

 **************************************************************************

                    xk=(  -0.10000,   0.00000,  -0.10000  )

     Band symmetry, C_1 (1)     point group:

     e(  1 -  1) =    -17.31120  eV     1   --> A              
     e(  2 -  2) =    -16.76320  eV     1   --> A              
     e(  3 -  3) =    -16.71093  eV     1   --> A              
     e(  4 -  4) =    -16.67220  eV     1   --> A              
     e(  5 -  5) =     -7.61801  eV     1   --> A              
     e(  6 -  6) =     -7.60331  eV     1   --> A              
     e(  7 -  7) =     -7.53264  eV     1   --> A              
     e(  8 -  8) =     -6.82560  eV     1   --> A              
     e(  9 -  9) =     -6.79546  eV     1   --> A              
     e( 10 - 10) =     -6.66307  eV     1   --> A              
     e( 11 - 11) =     -6.62389  eV     1   --> A              
     e( 12 - 12) =     -6.49069  eV     1   --> A              
     e( 13 - 13) =     -2.45051  eV     1   --> A              
     e( 14 - 14) =     -2.41112  eV     1   --> A              
     e( 15 - 15) =     -2.24834  eV     1   --> A              
     e( 16 - 16) =     -1.82122  eV     1   --> A              
     e( 17 - 17) =      2.66582  eV     1   --> A              
     e( 18 - 18) =      5.67377  eV     1   --> A              
     e( 19 - 19) =      5.90265  eV     1   --> A              
     e( 20 - 20) =      6.05465  eV     1   --> A              

 **************************************************************************

 **************************************************************************

                    xk=(  -0.11667,   0.00000,  -0.11667  )

     Band symmetry, C_1 (1)     point group:

     e(  1 -  1) =    -17.30213  eV     1   --> A              
     e(  2 -  2) =    -16.77436  eV     1   --> A              
     e(  3 -  3) =    -16.71267  eV     1   --> A              
     e(  4 -  4) =    -16.66916  eV     1   --> A              
     e(  5 -  5) =     -7.61508  eV     1   --> A              
     e(  6 -  6) =     -7.60278  eV     1   --> A              
     e(  7 -  7) =     -7.51645  eV     1   --> A              
     e(  8 -  8) =     -6.83502  eV     1   --> A              
     e(  9 -  9) =     -6.79475  eV     1   --> A              
     e( 10 - 10) =     -6.67290  eV     1   --> A              
     e( 11 - 11) =     -6.63986  eV     1   --> A              
     e( 12 - 12) =     -6.48037  eV     1   --> A              
     e( 13 - 13) =     -2.46496  eV     1   --> A              
     e( 14 - 14) =     -2.42886  eV     1   --> A              
     e( 15 - 15) =     -2.23158  eV     1   --> A              
     e( 16 - 16) =     -1.82933  eV     1   --> A              
     e( 17 - 17) =      2.73438  eV     1   --> A              
     e( 18 - 18) =      5.66132  eV     1   --> A              
     e( 19 - 19) =      5.93035  eV     1   --> A              
     e( 20 - 20) =      6.10911  eV     1   --> A              

 **************************************************************************

 **************************************************************************

                    xk=(  -0.13333,   0.00000,  -0.13333  )

     Band symmetry, C_1 (1)     point group:

     e(  1 -  1) =    -17.29180  eV     1   --> A              
     e(  2 -  2) =    -16.78582  eV     1   --> A              
     e(  3 -  3) =    -16.71466  eV     1   --> A              
     e(  4 -  4) =    -16.66688  eV     1   --> A              
     e(  5 -  5) =     -7.61132  eV     1   --> A              
     e(  6 -  6) =     -7.60201  eV     1   --> A              
     e(  7 -  7) =     -7.49964  eV     1   --> A              
     e(  8 -  8) =     -6.84569  eV     1   --> A              
     e(  9 -  9) =     -6.79504  eV     1   --> A              
     e( 10 - 10) =     -6.68142  eV     1   --> A              
     e( 11 - 11) =     -6.65593  eV     1   --> A              
     e( 12 - 12) =     -6.47129  eV     1   --> A              
     e( 13 - 13) =     -2.47877  eV     1   --> A              
     e( 14 - 14) =     -2.44741  eV     1   --> A              
     e( 15 - 15) =     -2.21521  eV     1   --> A              
     e( 16 - 16) =     -1.83842  eV     1   --> A              
     e( 17 - 17) =      2.81152  eV     1   --> A              
     e( 18 - 18) =      5.65101  eV     1   --> A              
     e( 19 - 19) =      5.95769  eV     1   --> A              
     e( 20 - 20) =      6.16771  eV     1   --> A              

 **************************************************************************

 **************************************************************************

                    xk=(  -0.15000,   0.00000,  -0.15000  )

     Band symmetry, C_1 (1)     point group:

     e(  1 -  1) =    -17.28026  eV     1   --> A              
     e(  2 -  2) =    -16.79751  eV     1   --> A              
     e(  3 -  3) =    -16.71689  eV     1   --> A              
     e(  4 -  4) =    -16.66538  eV     1   --> A              
     e(  5 -  5) =     -7.60746  eV     1   --> A              
     e(  6 -  6) =     -7.60057  eV     1   --> A              
     e(  7 -  7) =     -7.48249  eV     1   --> A              
     e(  8 -  8) =     -6.85716  eV     1   --> A              
     e(  9 -  9) =     -6.79719  eV     1   --> A              
     e( 10 - 10) =     -6.69132  eV     1   --> A              
     e( 11 - 11) =     -6.66846  eV     1   --> A              
     e( 12 - 12) =     -6.46346  eV     1   --> A              
     e( 13 - 13) =     -2.49196  eV     1   --> A              
     e( 14 - 14) =     -2.46612  eV     1   --> A              
     e( 15 - 15) =     -2.19929  eV     1   --> A              
     e( 16 - 16) =     -1.84836  eV     1   --> A              
     e( 17 - 17) =      2.89654  eV     1   --> A              
     e( 18 - 18) =      5.64251  eV     1   --> A              
     e( 19 - 19) =      5.98300  eV     1   --> A              
     e( 20 - 20) =      6.23051  eV     1   --> A              

 **************************************************************************

 **************************************************************************

                    xk=(  -0.16667,   0.00000,  -0.16667  )

     Band symmetry, C_1 (1)     point group:

     e(  1 -  1) =    -17.26757  eV     1   --> A              
     e(  2 -  2) =    -16.80935  eV     1   --> A              
     e(  3 -  3) =    -16.71935  eV     1   --> A              
     e(  4 -  4) =    -16.66465  eV     1   --> A              
     e(  5 -  5) =     -7.60481  eV     1   --> A              
     e(  6 -  6) =     -7.59741  eV     1   --> A              
     e(  7 -  7) =     -7.46523  eV     1   --> A              
     e(  8 -  8) =     -6.86883  eV     1   --> A              
     e(  9 -  9) =     -6.80241  eV     1   --> A              
     e( 10 - 10) =     -6.70503  eV     1   --> A              
     e( 11 - 11) =     -6.67369  eV     1   --> A              
     e( 12 - 12) =     -6.45688  eV     1   --> A              
     e( 13 - 13) =     -2.50465  eV     1   --> A              
     e( 14 - 14) =     -2.48427  eV     1   --> A              
     e( 15 - 15) =     -2.18384  eV     1   --> A              
     e( 16 - 16) =     -1.85900  eV     1   --> A              
     e( 17 - 17) =      2.98877  eV     1   --> A              
     e( 18 - 18) =      5.63549  eV     1   --> A              
     e( 19 - 19) =      6.00472  eV     1   --> A              
     e( 20 - 20) =      6.29741  eV     1   --> A              

 **************************************************************************

 **************************************************************************

                    xk=(  -0.18333,   0.00000,  -0.18333  )

     Band symmetry, C_1 (1)     point group:

     e(  1 -  1) =    -17.25381  eV     1   --> A              
     e(  2 -  2) =    -16.82129  eV     1   --> A              
     e(  3 -  3) =    -16.72203  eV     1   --> A              
     e(  4 -  4) =    -16.66471  eV     1   --> A              
     e(  5 -  5) =     -7.60365  eV     1   --> A              
     e(  6 -  6) =     -7.59262  eV     1   --> A              
     e(  7 -  7) =     -7.44819  eV     1   --> A              
     e(  8 -  8) =     -6.88020  eV     1   --> A              
     e(  9 -  9) =     -6.81232  eV     1   --> A              
     e( 10 - 10) =     -6.71918  eV     1   --> A              
     e( 11 - 11) =     -6.67340  eV     1   --> A              
     e( 12 - 12) =     -6.45159  eV     1   --> A              
     e( 13 - 13) =     -2.51720  eV     1   --> A              
     e( 14 - 14) =     -2.50108  eV     1   --> A              
     e( 15 - 15) =     -2.16895  eV     1   --> A              
     e( 16 - 16) =     -1.87021  eV     1   --> A              
     e( 17 - 17) =      3.08750  eV     1   --> A              
     e( 18 - 18) =      5.62956  eV     1   --> A              
     e( 19 - 19) =      6.02139  eV     1   --> A              
     e( 20 - 20) =      6.36812  eV     1   --> A              

 **************************************************************************

 **************************************************************************

                    xk=(  -0.20000,   0.00000,  -0.20000  )

     Band symmetry, C_1 (1)     point group:

     e(  1 -  1) =    -17.23905  eV     1   --> A              
     e(  2 -  2) =    -16.83322  eV     1   --> A              
     e(  3 -  3) =    -16.72490  eV     1   --> A              
     e(  4 -  4) =    -16.66555  eV     1   --> A              
     e(  5 -  5) =     -7.60309  eV     1   --> A              
     e(  6 -  6) =     -7.58735  eV     1   --> A              
     e(  7 -  7) =     -7.43159  eV     1   --> A              
     e(  8 -  8) =     -6.89083  eV     1   --> A              
     e(  9 -  9) =     -6.82792  eV     1   --> A              
     e( 10 - 10) =     -6.73033  eV     1   --> A              
     e( 11 - 11) =     -6.66974  eV     1   --> A              
     e( 12 - 12) =     -6.44756  eV     1   --> A              
     e( 13 - 13) =     -2.53008  eV     1   --> A              
     e( 14 - 14) =     -2.51560  eV     1   --> A              
     e( 15 - 15) =     -2.15462  eV     1   --> A              
     e( 16 - 16) =     -1.88180  eV     1   --> A              
     e( 17 - 17) =      3.19208  eV     1   --> A              
     e( 18 - 18) =      5.62435  eV     1   --> A              
     e( 19 - 19) =      6.03183  eV     1   --> A              
     e( 20 - 20) =      6.44222  eV     1   --> A              

 **************************************************************************

 **************************************************************************

                    xk=(  -0.21667,   0.00000,  -0.21667  )

     Band symmetry, C_1 (1)     point group:

     e(  1 -  1) =    -17.22339  eV     1   --> A              
     e(  2 -  2) =    -16.84508  eV     1   --> A              
     e(  3 -  3) =    -16.72794  eV     1   --> A              
     e(  4 -  4) =    -16.66718  eV     1   --> A              
     e(  5 -  5) =     -7.60277  eV     1   --> A              
     e(  6 -  6) =     -7.58225  eV     1   --> A              
     e(  7 -  7) =     -7.41569  eV     1   --> A              
     e(  8 -  8) =     -6.90088  eV     1   --> A              
     e(  9 -  9) =     -6.84829  eV     1   --> A              
     e( 10 - 10) =     -6.73775  eV     1   --> A              
     e( 11 - 11) =     -6.66367  eV     1   --> A              
     e( 12 - 12) =     -6.44479  eV     1   --> A              
     e( 13 - 13) =     -2.54332  eV     1   --> A              
     e( 14 - 14) =     -2.52745  eV     1   --> A              
     e( 15 - 15) =     -2.14090  eV     1   --> A              
     e( 16 - 16) =     -1.89360  eV     1   --> A              
     e( 17 - 17) =      3.30186  eV     1   --> A              
     e( 18 - 18) =      5.61948  eV     1   --> A              
     e( 19 - 19) =      6.03514  eV     1   --> A              
     e( 20 - 20) =      6.51911  eV     1   --> A              

 **************************************************************************

 **************************************************************************

                    xk=(  -0.23333,   0.00000,  -0.23333  )

     Band symmetry, C_1 (1)     point group:

     e(  1 -  1) =    -17.20692  eV     1   --> A              
     e(  2 -  2) =    -16.85678  eV     1   --> A              
     e(  3 -  3) =    -16.73110  eV     1   --> A              
     e(  4 -  4) =    -16.66960  eV     1   --> A              
     e(  5 -  5) =     -7.60255  eV     1   --> A              
     e(  6 -  6) =     -7.57768  eV     1   --> A              
     e(  7 -  7) =     -7.40069  eV     1   --> A              
     e(  8 -  8) =     -6.91220  eV     1   --> A              
     e(  9 -  9) =     -6.86968  eV     1   --> A              
     e( 10 - 10) =     -6.74223  eV     1   --> A              
     e( 11 - 11) =     -6.65574  eV     1   --> A              
     e( 12 - 12) =     -6.44325  eV     1   --> A              
     e( 13 - 13) =     -2.55612  eV     1   --> A              
     e( 14 - 14) =     -2.53719  eV     1   --> A              
     e( 15 - 15) =     -2.12780  eV     1   --> A              
     e( 16 - 16) =     -1.90545  eV     1   --> A              
     e( 17 - 17) =      3.41624  eV     1   --> A              
     e( 18 - 18) =      5.61460  eV     1   --> A              
     e( 19 - 19) =      6.03076  eV     1   --> A              
     e( 20 - 20) =      6.59802  eV     1   --> A              

 **************************************************************************

 **************************************************************************

                    xk=(  -0.25000,   0.00000,  -0.25000  )

     Band symmetry, C_1 (1)     point group:

     e(  1 -  1) =    -17.18973  eV     1   --> A              
     e(  2 -  2) =    -16.86824  eV     1   --> A              
     e(  3 -  3) =    -16.73437  eV     1   --> A              
     e(  4 -  4) =    -16.67281  eV     1   --> A              
     e(  5 -  5) =     -7.60239  eV     1   --> A              
     e(  6 -  6) =     -7.57387  eV     1   --> A              
     e(  7 -  7) =     -7.38677  eV     1   --> A              
     e(  8 -  8) =     -6.93000  eV     1   --> A              
     e(  9 -  9) =     -6.88502  eV     1   --> A              
     e( 10 - 10) =     -6.74482  eV     1   --> A              
     e( 11 - 11) =     -6.64640  eV     1   --> A              
     e( 12 - 12) =     -6.44294  eV     1   --> A              
     e( 13 - 13) =     -2.56766  eV     1   --> A              
     e( 14 - 14) =     -2.54546  eV     1   --> A              
     e( 15 - 15) =     -2.11533  eV     1   --> A              
     e( 16 - 16) =     -1.91719  eV     1   --> A              
     e( 17 - 17) =      3.53467  eV     1   --> A              
     e( 18 - 18) =      5.60936  eV     1   --> A              
     e( 19 - 19) =      6.01851  eV     1   --> A              
     e( 20 - 20) =      6.67787  eV     1   --> A              

 **************************************************************************

 **************************************************************************

                    xk=(  -0.26667,   0.00000,  -0.26667  )

     Band symmetry, C_1 (1)     point group:

     e(  1 -  1) =    -17.17194  eV     1   --> A              
     e(  2 -  2) =    -16.87939  eV     1   --> A              
     e(  3 -  3) =    -16.73770  eV     1   --> A              
     e(  4 -  4) =    -16.67681  eV     1   --> A              
     e(  5 -  5) =     -7.60223  eV     1   --> A              
     e(  6 -  6) =     -7.57098  eV     1   --> A              
     e(  7 -  7) =     -7.37407  eV     1   --> A              
     e(  8 -  8) =     -6.95668  eV     1   --> A              
     e(  9 -  9) =     -6.89059  eV     1   --> A              
     e( 10 - 10) =     -6.74622  eV     1   --> A              
     e( 11 - 11) =     -6.63600  eV     1   --> A              
     e( 12 - 12) =     -6.44384  eV     1   --> A              
     e( 13 - 13) =     -2.57755  eV     1   --> A              
     e( 14 - 14) =     -2.55262  eV     1   --> A              
     e( 15 - 15) =     -2.10353  eV     1   --> A              
     e( 16 - 16) =     -1.92869  eV     1   --> A              
     e( 17 - 17) =      3.65661  eV     1   --> A              
     e( 18 - 18) =      5.60351  eV     1   --> A              
     e( 19 - 19) =      5.99857  eV     1   --> A              
     e( 20 - 20) =      6.75670  eV     1   --> A              

 **************************************************************************

 **************************************************************************

                    xk=(  -0.28333,   0.00000,  -0.28333  )

     Band symmetry, C_1 (1)     point group:

     e(  1 -  1) =    -17.15366  eV     1   --> A              
     e(  2 -  2) =    -16.89014  eV     1   --> A              
     e(  3 -  3) =    -16.74105  eV     1   --> A              
     e(  4 -  4) =    -16.68159  eV     1   --> A              
     e(  5 -  5) =     -7.60201  eV     1   --> A              
     e(  6 -  6) =     -7.56905  eV     1   --> A              
     e(  7 -  7) =     -7.36263  eV     1   --> A              
     e(  8 -  8) =     -6.98820  eV     1   --> A              
     e(  9 -  9) =     -6.88950  eV     1   --> A              
     e( 10 - 10) =     -6.74686  eV     1   --> A              
     e( 11 - 11) =     -6.62489  eV     1   --> A              
     e( 12 - 12) =     -6.44592  eV     1   --> A              
     e( 13 - 13) =     -2.58558  eV     1   --> A              
     e( 14 - 14) =     -2.55885  eV     1   --> A              
     e( 15 - 15) =     -2.09237  eV     1   --> A              
     e( 16 - 16) =     -1.93980  eV     1   --> A              
     e( 17 - 17) =      3.78159  eV     1   --> A              
     e( 18 - 18) =      5.59687  eV     1   --> A              
     e( 19 - 19) =      5.97152  eV     1   --> A              
     e( 20 - 20) =      6.82934  eV     1   --> A              

 **************************************************************************

 **************************************************************************

                    xk=(  -0.30000,   0.00000,  -0.30000  )

     Band symmetry, C_1 (1)     point group:

     e(  1 -  1) =    -17.13504  eV     1   --> A              
     e(  2 -  2) =    -16.90043  eV     1   --> A              
     e(  3 -  3) =    -16.74438  eV     1   --> A              
     e(  4 -  4) =    -16.68713  eV     1   --> A              
     e(  5 -  5) =     -7.60167  eV     1   --> A              
     e(  6 -  6) =     -7.56807  eV     1   --> A              
     e(  7 -  7) =     -7.35246  eV     1   --> A              
     e(  8 -  8) =     -7.02173  eV     1   --> A              
     e(  9 -  9) =     -6.88406  eV     1   --> A              
     e( 10 - 10) =     -6.74700  eV     1   --> A              
     e( 11 - 11) =     -6.61337  eV     1   --> A              
     e( 12 - 12) =     -6.44914  eV     1   --> A              
     e( 13 - 13) =     -2.59175  eV     1   --> A              
     e( 14 - 14) =     -2.56427  eV     1   --> A              
     e( 15 - 15) =     -2.08188  eV     1   --> A              
     e( 16 - 16) =     -1.95042  eV     1   --> A              
     e( 17 - 17) =      3.90917  eV     1   --> A              
     e( 18 - 18) =      5.58934  eV     1   --> A              
     e( 19 - 19) =      5.93827  eV     1   --> A              
     e( 20 - 20) =      6.87475  eV     1   --> A              

 **************************************************************************

 **************************************************************************

                    xk=(  -0.31667,   0.00000,  -0.31667  )

     Band symmetry, C_1 (1)     point group:

     e(  1 -  1) =    -17.11621  eV     1   --> A              
     e(  2 -  2) =    -16.91017  eV     1   --> A              
     e(  3 -  3) =    -16.74765  eV     1   --> A              
     e(  4 -  4) =    -16.69341  eV     1   --> A              
     e(  5 -  5) =     -7.60113  eV     1   --> A              
     e(  6 -  6) =     -7.56793  eV     1   --> A              
     e(  7 -  7) =     -7.34352  eV     1   --> A              
     e(  8 -  8) =     -7.05593  eV     1   --> A              
     e(  9 -  9) =     -6.87528  eV     1   --> A              
     e( 10 - 10) =     -6.74677  eV     1   --> A              
     e( 11 - 11) =     -6.60173  eV     1   --> A              
     e( 12 - 12) =     -6.45345  eV     1   --> A              
     e( 13 - 13) =     -2.59610  eV     1   --> A              
     e( 14 - 14) =     -2.56894  eV     1   --> A              
     e( 15 - 15) =     -2.07206  eV     1   --> A              
     e( 16 - 16) =     -1.96043  eV     1   --> A              
     e( 17 - 17) =      4.03896  eV     1   --> A              
     e( 18 - 18) =      5.58093  eV     1   --> A              
     e( 19 - 19) =      5.90001  eV     1   --> A              
     e( 20 - 20) =      6.84722  eV     1   --> A              

 **************************************************************************

 **************************************************************************

                    xk=(  -0.33333,   0.00000,  -0.33333  )

     Band symmetry, C_1 (1)     point group:

     e(  1 -  1) =    -17.09732  eV     1   --> A              
     e(  2 -  2) =    -16.91931  eV     1   --> A              
     e(  3 -  3) =    -16.75081  eV     1   --> A              
     e(  4 -  4) =    -16.70037  eV     1   --> A              
     e(  5 -  5) =     -7.60031  eV     1   --> A              
     e(  6 -  6) =     -7.56849  eV     1   --> A              
     e(  7 -  7) =     -7.33576  eV     1   --> A              
     e(  8 -  8) =     -7.09003  eV     1   --> A              
     e(  9 -  9) =     -6.86385  eV     1   --> A              
     e( 10 - 10) =     -6.74630  eV     1   --> A              
     e( 11 - 11) =     -6.59023  eV     1   --> A              
     e( 12 - 12) =     -6.45881  eV     1   --> A              
     e( 13 - 13) =     -2.59882  eV     1   --> A              
     e( 14 - 14) =     -2.57299  eV     1   --> A              
     e( 15 - 15) =     -2.06293  eV     1   --> A              
     e( 16 - 16) =     -1.96977  eV     1   --> A              
     e( 17 - 17) =      4.17059  eV     1   --> A              
     e( 18 - 18) =      5.57177  eV     1   --> A              
     e( 19 - 19) =      5.85812  eV     1   --> A              
     e( 20 - 20) =      6.76674  eV     1   --> A              

 **************************************************************************

 **************************************************************************

                    xk=(  -0.35000,   0.00000,  -0.35000  )

     Band symmetry, C_1 (1)     point group:

     e(  1 -  1) =    -17.07857  eV     1   --> A              
     e(  2 -  2) =    -16.92779  eV     1   --> A              
     e(  3 -  3) =    -16.75382  eV     1   --> A              
     e(  4 -  4) =    -16.70796  eV     1   --> A              
     e(  5 -  5) =     -7.59916  eV     1   --> A              
     e(  6 -  6) =     -7.56959  eV     1   --> A              
     e(  7 -  7) =     -7.32908  eV     1   --> A              
     e(  8 -  8) =     -7.12342  eV     1   --> A              
     e(  9 -  9) =     -6.85032  eV     1   --> A              
     e( 10 - 10) =     -6.74568  eV     1   --> A              
     e( 11 - 11) =     -6.57912  eV     1   --> A              
     e( 12 - 12) =     -6.46512  eV     1   --> A              
     e( 13 - 13) =     -2.60008  eV     1   --> A              
     e( 14 - 14) =     -2.57645  eV     1   --> A              
     e( 15 - 15) =     -2.05453  eV     1   --> A              
     e( 16 - 16) =     -1.97836  eV     1   --> A              
     e( 17 - 17) =      4.30374  eV     1   --> A              
     e( 18 - 18) =      5.56209  eV     1   --> A              
     e( 19 - 19) =      5.81410  eV     1   --> A              
     e( 20 - 20) =      6.66618  eV     1   --> A              

 **************************************************************************

 **************************************************************************

                    xk=(  -0.36667,   0.00000,  -0.36667  )

     Band symmetry, C_1 (1)     point group:

     e(  1 -  1) =    -17.06014  eV     1   --> A              
     e(  2 -  2) =    -16.93553  eV     1   --> A              
     e(  3 -  3) =    -16.75664  eV     1   --> A              
     e(  4 -  4) =    -16.71607  eV     1   --> A              
     e(  5 -  5) =     -7.59759  eV     1   --> A              
     e(  6 -  6) =     -7.57102  eV     1   --> A              
     e(  7 -  7) =     -7.32338  eV     1   --> A              
     e(  8 -  8) =     -7.15559  eV     1   --> A              
     e(  9 -  9) =     -6.83529  eV     1   --> A              
     e( 10 - 10) =     -6.74496  eV     1   --> A              
     e( 11 - 11) =     -6.56860  eV     1   --> A              
     e( 12 - 12) =     -6.47228  eV     1   --> A              
     e( 13 - 13) =     -2.60013  eV     1   --> A              
     e( 14 - 14) =     -2.57938  eV     1   --> A              
     e( 15 - 15) =     -2.04685  eV     1   --> A              
     e( 16 - 16) =     -1.98616  eV     1   --> A              
     e( 17 - 17) =      4.43811  eV     1   --> A              
     e( 18 - 18) =      5.55222  eV     1   --> A              
     e( 19 - 19) =      5.76947  eV     1   --> A              
     e( 20 - 20) =      6.55530  eV     1   --> A              

 **************************************************************************

 **************************************************************************

                    xk=(  -0.38333,   0.00000,  -0.38333  )

     Band symmetry, C_1 (1)     point group:

     e(  1 -  1) =    -17.04228  eV     1   --> A              
     e(  2 -  2) =    -16.94249  eV     1   --> A              
     e(  3 -  3) =    -16.75923  eV     1   --> A              
     e(  4 -  4) =    -16.72457  eV     1   --> A              
     e(  5 -  5) =     -7.59558  eV     1   --> A              
     e(  6 -  6) =     -7.57264  eV     1   --> A              
     e(  7 -  7) =     -7.31858  eV     1   --> A              
     e(  8 -  8) =     -7.18601  eV     1   --> A              
     e(  9 -  9) =     -6.81934  eV     1   --> A              
     e( 10 - 10) =     -6.74419  eV     1   --> A              
     e( 11 - 11) =     -6.55888  eV     1   --> A              
     e( 12 - 12) =     -6.48013  eV     1   --> A              
     e( 13 - 13) =     -2.59924  eV     1   --> A              
     e( 14 - 14) =     -2.58185  eV     1   --> A              
     e( 15 - 15) =     -2.03994  eV     1   --> A              
     e( 16 - 16) =     -1.99310  eV     1   --> A              
     e( 17 - 17) =      4.57343  eV     1   --> A              
     e( 18 - 18) =      5.54258  eV     1   --> A              
     e( 19 - 19) =      5.72570  eV     1   --> A              
     e( 20 - 20) =      6.43773  eV     1   --> A              

 **************************************************************************

 **************************************************************************

                    xk=(  -0.40000,   0.00000,  -0.40000  )

     Band symmetry, C_1 (1)     point group:

     e(  1 -  1) =    -17.02527  eV     1   --> A              
     e(  2 -  2) =    -16.94862  eV     1   --> A              
     e(  3 -  3) =    -16.76156  eV     1   --> A              
     e(  4 -  4) =    -16.73326  eV     1   --> A              
     e(  5 -  5) =     -7.59314  eV     1   --> A              
     e(  6 -  6) =     -7.57429  eV     1   --> A              
     e(  7 -  7) =     -7.31459  eV     1   --> A              
     e(  8 -  8) =     -7.21419  eV     1   --> A              
     e(  9 -  9) =     -6.80311  eV     1   --> A              
     e( 10 - 10) =     -6.74342  eV     1   --> A              
     e( 11 - 11) =     -6.55014  eV     1   --> A              
     e( 12 - 12) =     -6.48846  eV     1   --> A              
     e( 13 - 13) =     -2.59769  eV     1   --> A              
     e( 14 - 14) =     -2.58391  eV     1   --> A              
     e( 15 - 15) =     -2.03384  eV     1   --> A              
     e( 16 - 16) =     -1.99917  eV     1   --> A              
     e( 17 - 17) =      4.70945  eV     1   --> A              
     e( 18 - 18) =      5.53366  eV     1   --> A              
     e( 19 - 19) =      5.68412  eV     1   --> A              
     e( 20 - 20) =      6.31535  eV     1   --> A              

 **************************************************************************

 **************************************************************************

                    xk=(  -0.41667,   0.00000,  -0.41667  )

     Band symmetry, C_1 (1)     point group:

     e(  1 -  1) =    -17.00946  eV     1   --> A              
     e(  2 -  2) =    -16.95389  eV     1   --> A              
     e(  3 -  3) =    -16.76358  eV     1   --> A              
     e(  4 -  4) =    -16.74188  eV     1   --> A              
     e(  5 -  5) =     -7.59037  eV     1   --> A              
     e(  6 -  6) =     -7.57587  eV     1   --> A              
     e(  7 -  7) =     -7.31134  eV     1   --> A              
     e(  8 -  8) =     -7.23958  eV     1   --> A              
     e(  9 -  9) =     -6.78726  eV     1   --> A              
     e( 10 - 10) =     -6.74272  eV     1   --> A              
     e( 11 - 11) =     -6.54253  eV     1   --> A              
     e( 12 - 12) =     -6.49699  eV     1   --> A              
     e( 13 - 13) =     -2.59580  eV     1   --> A              
     e( 14 - 14) =     -2.58560  eV     1   --> A              
     e( 15 - 15) =     -2.02858  eV     1   --> A              
     e( 16 - 16) =     -2.00436  eV     1   --> A              
     e( 17 - 17) =      4.84594  eV     1   --> A              
     e( 18 - 18) =      5.52601  eV     1   --> A              
     e( 19 - 19) =      5.64588  eV     1   --> A              
     e( 20 - 20) =      6.18937  eV     1   --> A              

 **************************************************************************

 **************************************************************************

                    xk=(  -0.43333,   0.00000,  -0.43333  )

     Band symmetry, C_1 (1)     point group:

     e(  1 -  1) =    -16.99529  eV     1   --> A              
     e(  2 -  2) =    -16.95824  eV     1   --> A              
     e(  3 -  3) =    -16.76528  eV     1   --> A              
     e(  4 -  4) =    -16.75007  eV     1   --> A              
     e(  5 -  5) =     -7.58742  eV     1   --> A              
     e(  6 -  6) =     -7.57725  eV     1   --> A              
     e(  7 -  7) =     -7.30876  eV     1   --> A              
     e(  8 -  8) =     -7.26161  eV     1   --> A              
     e(  9 -  9) =     -6.77250  eV     1   --> A              
     e( 10 - 10) =     -6.74208  eV     1   --> A              
     e( 11 - 11) =     -6.53613  eV     1   --> A              
     e( 12 - 12) =     -6.50528  eV     1   --> A              
     e( 13 - 13) =     -2.59381  eV     1   --> A              
     e( 14 - 14) =     -2.58693  eV     1   --> A              
     e( 15 - 15) =     -2.02420  eV     1   --> A              
     e( 16 - 16) =     -2.00862  eV     1   --> A              
     e( 17 - 17) =      4.98269  eV     1   --> A              
     e( 18 - 18) =      5.52021  eV     1   --> A              
     e( 19 - 19) =      5.61192  eV     1   --> A              
     e( 20 - 20) =      6.06062  eV     1   --> A              

 **************************************************************************

 **************************************************************************

                    xk=(  -0.45000,   0.00000,  -0.45000  )

     Band symmetry, C_1 (1)     point group:

     e(  1 -  1) =    -16.98327  eV     1   --> A              
     e(  2 -  2) =    -16.96166  eV     1   --> A              
     e(  3 -  3) =    -16.76663  eV     1   --> A              
     e(  4 -  4) =    -16.75737  eV     1   --> A              
     e(  5 -  5) =     -7.58457  eV     1   --> A              
     e(  6 -  6) =     -7.57839  eV     1   --> A              
     e(  7 -  7) =     -7.30681  eV     1   --> A              
     e(  8 -  8) =     -7.27968  eV     1   --> A              
     e(  9 -  9) =     -6.75965  eV     1   --> A              
     e( 10 - 10) =     -6.74155  eV     1   --> A              
     e( 11 - 11) =     -6.53106  eV     1   --> A              
     e( 12 - 12) =     -6.51282  eV     1   --> A              
     e( 13 - 13) =     -2.59197  eV     1   --> A              
     e( 14 - 14) =     -2.58795  eV     1   --> A              
     e( 15 - 15) =     -2.02074  eV     1   --> A              
     e( 16 - 16) =     -2.01194  eV     1   --> A              
     e( 17 - 17) =      5.11950  eV     1   --> A              
     e( 18 - 18) =      5.51689  eV     1   --> A              
     e( 19 - 19) =      5.58292  eV     1   --> A              
     e( 20 - 20) =      5.92971  eV     1   --> A              

 **************************************************************************

 **************************************************************************

                    xk=(  -0.46667,   0.00000,  -0.46667  )

     Band symmetry, C_1 (1)     point group:

     e(  1 -  1) =    -16.97400  eV     1   --> A              
     e(  2 -  2) =    -16.96411  eV     1   --> A              
     e(  3 -  3) =    -16.76760  eV     1   --> A              
     e(  4 -  4) =    -16.76323  eV     1   --> A              
     e(  5 -  5) =     -7.58215  eV     1   --> A              
     e(  6 -  6) =     -7.57923  eV     1   --> A              
     e(  7 -  7) =     -7.30545  eV     1   --> A              
     e(  8 -  8) =     -7.29316  eV     1   --> A              
     e(  9 -  9) =     -6.74956  eV     1   --> A              
     e( 10 - 10) =     -6.74116  eV     1   --> A              
     e( 11 - 11) =     -6.52739  eV     1   --> A              
     e( 12 - 12) =     -6.51896  eV     1   --> A              
     e( 13 - 13) =     -2.59050  eV     1   --> A              
     e( 14 - 14) =     -2.58866  eV     1   --> A              
     e( 15 - 15) =     -2.01825  eV     1   --> A              
     e( 16 - 16) =     -2.01432  eV     1   --> A              
     e( 17 - 17) =      5.25615  eV     1   --> A              
     e( 18 - 18) =      5.51668  eV     1   --> A              
     e( 19 - 19) =      5.55928  eV     1   --> A              
     e( 20 - 20) =      5.79711  eV     1   --> A              

 **************************************************************************

 **************************************************************************

                    xk=(  -0.48333,   0.00000,  -0.48333  )

     Band symmetry, C_1 (1)     point group:

     e(  1 -  1) =    -16.96812  eV     1   --> A              
     e(  2 -  2) =    -16.96560  eV     1   --> A              
     e(  3 -  3) =    -16.76819  eV     1   --> A              
     e(  4 -  4) =    -16.76706  eV     1   --> A              
     e(  5 -  5) =     -7.58051  eV     1   --> A              
     e(  6 -  6) =     -7.57976  eV     1   --> A              
     e(  7 -  7) =     -7.30464  eV     1   --> A              
     e(  8 -  8) =     -7.30154  eV     1   --> A              
     e(  9 -  9) =     -6.74308  eV     1   --> A              
     e( 10 - 10) =     -6.74092  eV     1   --> A              
     e( 11 - 11) =     -6.52519  eV     1   --> A              
     e( 12 - 12) =     -6.52302  eV     1   --> A              
     e( 13 - 13) =     -2.58956  eV     1   --> A              
     e( 14 - 14) =     -2.58909  eV     1   --> A              
     e( 15 - 15) =     -2.01674  eV     1   --> A              
     e( 16 - 16) =     -2.01576  eV     1   --> A              
     e( 17 - 17) =      5.39246  eV     1   --> A              
     e( 18 - 18) =      5.52025  eV     1   --> A              
     e( 19 - 19) =      5.54109  eV     1   --> A              
     e( 20 - 20) =      5.66317  eV     1   --> A              

 **************************************************************************

 **************************************************************************

                    xk=(  -0.50000,   0.00000,  -0.50000  )

     zone border point and non-symmorphic group 
     symmetry decomposition not available

 **************************************************************************

 **************************************************************************

                    xk=(  -0.48750,   0.02500,  -0.48750  )

     point group C_1 (1)    
     there are  1 classes
     the character table:

       E    
A      1.00

     the symmetry operations in each class and the name of the first element:

     E        1
                                                                 

     Band symmetry, C_1 (1)     point group:

     e(  1 -  1) =    -16.96691  eV     1   --> A              
     e(  2 -  2) =    -16.96549  eV     1   --> A              
     e(  3 -  3) =    -16.76856  eV     1   --> A              
     e(  4 -  4) =    -16.76791  eV     1   --> A              
     e(  5 -  5) =     -7.58134  eV     1   --> A              
     e(  6 -  6) =     -7.58090  eV     1   --> A              
     e(  7 -  7) =     -7.30728  eV     1   --> A              
[...]
     e(  7 -  7) =     -7.47199  eV     1   --> A              
     e(  8 -  8) =     -6.86230  eV     1   --> A              
     e(  9 -  9) =     -6.79436  eV     1   --> A              
     e( 10 - 10) =     -6.73212  eV     1   --> A              
     e( 11 - 11) =     -6.66102  eV     1   --> A              
     e( 12 - 12) =     -6.44893  eV     1   --> A              
     e( 13 - 13) =     -2.49829  eV     1   --> A              
     e( 14 - 14) =     -2.48703  eV     1   --> A              
     e( 15 - 15) =     -2.18369  eV     1   --> A              
     e( 16 - 16) =     -1.85832  eV     1   --> A              
     e( 17 - 17) =      2.98077  eV     1   --> A              
     e( 18 - 18) =      5.65952  eV     1   --> A              
     e( 19 - 19) =      6.01250  eV     1   --> A              
     e( 20 - 20) =      6.27378  eV     1   --> A              

 **************************************************************************

 **************************************************************************

                    xk=(  -0.13750,   0.09167,  -0.13750  )

     Band symmetry, C_1 (1)     point group:

     e(  1 -  1) =    -17.27889  eV     1   --> A              
     e(  2 -  2) =    -16.79387  eV     1   --> A              
     e(  3 -  3) =    -16.72171  eV     1   --> A              
     e(  4 -  4) =    -16.66560  eV     1   --> A              
     e(  5 -  5) =     -7.60698  eV     1   --> A              
     e(  6 -  6) =     -7.60141  eV     1   --> A              
     e(  7 -  7) =     -7.48455  eV     1   --> A              
     e(  8 -  8) =     -6.85333  eV     1   --> A              
     e(  9 -  9) =     -6.79550  eV     1   --> A              
     e( 10 - 10) =     -6.70969  eV     1   --> A              
     e( 11 - 11) =     -6.66216  eV     1   --> A              
     e( 12 - 12) =     -6.45590  eV     1   --> A              
     e( 13 - 13) =     -2.48885  eV     1   --> A              
     e( 14 - 14) =     -2.47180  eV     1   --> A              
     e( 15 - 15) =     -2.19647  eV     1   --> A              
     e( 16 - 16) =     -1.84948  eV     1   --> A              
     e( 17 - 17) =      2.90509  eV     1   --> A              
     e( 18 - 18) =      5.66159  eV     1   --> A              
     e( 19 - 19) =      5.98773  eV     1   --> A              
     e( 20 - 20) =      6.22576  eV     1   --> A              

 **************************************************************************

 **************************************************************************

                    xk=(  -0.12500,   0.08333,  -0.12500  )

     Band symmetry, C_1 (1)     point group:

     e(  1 -  1) =    -17.28863  eV     1   --> A              
     e(  2 -  2) =    -16.78514  eV     1   --> A              
     e(  3 -  3) =    -16.71912  eV     1   --> A              
     e(  4 -  4) =    -16.66647  eV     1   --> A              
     e(  5 -  5) =     -7.60850  eV     1   --> A              
     e(  6 -  6) =     -7.60392  eV     1   --> A              
     e(  7 -  7) =     -7.49749  eV     1   --> A              
     e(  8 -  8) =     -6.84415  eV     1   --> A              
     e(  9 -  9) =     -6.79697  eV     1   --> A              
     e( 10 - 10) =     -6.68872  eV     1   --> A              
     e( 11 - 11) =     -6.66120  eV     1   --> A              
     e( 12 - 12) =     -6.46350  eV     1   --> A              
     e( 13 - 13) =     -2.47905  eV     1   --> A              
     e( 14 - 14) =     -2.45593  eV     1   --> A              
     e( 15 - 15) =     -2.20964  eV     1   --> A              
     e( 16 - 16) =     -1.84112  eV     1   --> A              
     e( 17 - 17) =      2.83404  eV     1   --> A              
     e( 18 - 18) =      5.66490  eV     1   --> A              
     e( 19 - 19) =      5.96236  eV     1   --> A              
     e( 20 - 20) =      6.17868  eV     1   --> A              

 **************************************************************************

 **************************************************************************

                    xk=(  -0.11250,   0.07500,  -0.11250  )

     Band symmetry, C_1 (1)     point group:

     e(  1 -  1) =    -17.29756  eV     1   --> A              
     e(  2 -  2) =    -16.77644  eV     1   --> A              
     e(  3 -  3) =    -16.71674  eV     1   --> A              
     e(  4 -  4) =    -16.66793  eV     1   --> A              
     e(  5 -  5) =     -7.61171  eV     1   --> A              
     e(  6 -  6) =     -7.60446  eV     1   --> A              
     e(  7 -  7) =     -7.51058  eV     1   --> A              
     e(  8 -  8) =     -6.83524  eV     1   --> A              
     e(  9 -  9) =     -6.79827  eV     1   --> A              
     e( 10 - 10) =     -6.67166  eV     1   --> A              
     e( 11 - 11) =     -6.65613  eV     1   --> A              
     e( 12 - 12) =     -6.47175  eV     1   --> A              
     e( 13 - 13) =     -2.46867  eV     1   --> A              
     e( 14 - 14) =     -2.43999  eV     1   --> A              
     e( 15 - 15) =     -2.22316  eV     1   --> A              
     e( 16 - 16) =     -1.83332  eV     1   --> A              
     e( 17 - 17) =      2.76807  eV     1   --> A              
     e( 18 - 18) =      5.66969  eV     1   --> A              
     e( 19 - 19) =      5.93714  eV     1   --> A              
     e( 20 - 20) =      6.13282  eV     1   --> A              

 **************************************************************************

 **************************************************************************

                    xk=(  -0.10000,   0.06667,  -0.10000  )

     Band symmetry, C_1 (1)     point group:

     e(  1 -  1) =    -17.30564  eV     1   --> A              
     e(  2 -  2) =    -16.76780  eV     1   --> A              
     e(  3 -  3) =    -16.71457  eV     1   --> A              
     e(  4 -  4) =    -16.66998  eV     1   --> A              
     e(  5 -  5) =     -7.61489  eV     1   --> A              
     e(  6 -  6) =     -7.60451  eV     1   --> A              
     e(  7 -  7) =     -7.52361  eV     1   --> A              
     e(  8 -  8) =     -6.82705  eV     1   --> A              
     e(  9 -  9) =     -6.79929  eV     1   --> A              
     e( 10 - 10) =     -6.66189  eV     1   --> A              
     e( 11 - 11) =     -6.64371  eV     1   --> A              
     e( 12 - 12) =     -6.48069  eV     1   --> A              
     e( 13 - 13) =     -2.45769  eV     1   --> A              
     e( 14 - 14) =     -2.42439  eV     1   --> A              
     e( 15 - 15) =     -2.23698  eV     1   --> A              
     e( 16 - 16) =     -1.82617  eV     1   --> A              
     e( 17 - 17) =      2.70762  eV     1   --> A              
     e( 18 - 18) =      5.67616  eV     1   --> A              
     e( 19 - 19) =      5.91277  eV     1   --> A              
     e( 20 - 20) =      6.08841  eV     1   --> A              

 **************************************************************************

 **************************************************************************

                    xk=(  -0.08750,   0.05833,  -0.08750  )

     Band symmetry, C_1 (1)     point group:

     e(  1 -  1) =    -17.31285  eV     1   --> A              
     e(  2 -  2) =    -16.75928  eV     1   --> A              
     e(  3 -  3) =    -16.71263  eV     1   --> A              
     e(  4 -  4) =    -16.67263  eV     1   --> A              
     e(  5 -  5) =     -7.61742  eV     1   --> A              
     e(  6 -  6) =     -7.60452  eV     1   --> A              
     e(  7 -  7) =     -7.53637  eV     1   --> A              
     e(  8 -  8) =     -6.81992  eV     1   --> A              
     e(  9 -  9) =     -6.80003  eV     1   --> A              
     e( 10 - 10) =     -6.65471  eV     1   --> A              
     e( 11 - 11) =     -6.62869  eV     1   --> A              
     e( 12 - 12) =     -6.49032  eV     1   --> A              
     e( 13 - 13) =     -2.44614  eV     1   --> A              
     e( 14 - 14) =     -2.40951  eV     1   --> A              
     e( 15 - 15) =     -2.25107  eV     1   --> A              
     e( 16 - 16) =     -1.81972  eV     1   --> A              
     e( 17 - 17) =      2.65311  eV     1   --> A              
     e( 18 - 18) =      5.68449  eV     1   --> A              
     e( 19 - 19) =      5.88984  eV     1   --> A              
     e( 20 - 20) =      6.04566  eV     1   --> A              

 **************************************************************************

 **************************************************************************

                    xk=(  -0.07500,   0.05000,  -0.07500  )

     Band symmetry, C_1 (1)     point group:

     e(  1 -  1) =    -17.31915  eV     1   --> A              
     e(  2 -  2) =    -16.75092  eV     1   --> A              
     e(  3 -  3) =    -16.71092  eV     1   --> A              
     e(  4 -  4) =    -16.67584  eV     1   --> A              
     e(  5 -  5) =     -7.61907  eV     1   --> A              
     e(  6 -  6) =     -7.60454  eV     1   --> A              
     e(  7 -  7) =     -7.54868  eV     1   --> A              
     e(  8 -  8) =     -6.81404  eV     1   --> A              
     e(  9 -  9) =     -6.80053  eV     1   --> A              
     e( 10 - 10) =     -6.64660  eV     1   --> A              
     e( 11 - 11) =     -6.61474  eV     1   --> A              
     e( 12 - 12) =     -6.50063  eV     1   --> A              
     e( 13 - 13) =     -2.43404  eV     1   --> A              
     e( 14 - 14) =     -2.39573  eV     1   --> A              
     e( 15 - 15) =     -2.26538  eV     1   --> A              
     e( 16 - 16) =     -1.81404  eV     1   --> A              
     e( 17 - 17) =      2.60495  eV     1   --> A              
     e( 18 - 18) =      5.69485  eV     1   --> A              
     e( 19 - 19) =      5.86891  eV     1   --> A              
     e( 20 - 20) =      6.00476  eV     1   --> A              

 **************************************************************************

 **************************************************************************

                    xk=(  -0.06250,   0.04167,  -0.06250  )

     Band symmetry, C_1 (1)     point group:

     e(  1 -  1) =    -17.32452  eV     1   --> A              
     e(  2 -  2) =    -16.74274  eV     1   --> A              
     e(  3 -  3) =    -16.70946  eV     1   --> A              
     e(  4 -  4) =    -16.67961  eV     1   --> A              
     e(  5 -  5) =     -7.61968  eV     1   --> A              
     e(  6 -  6) =     -7.60459  eV     1   --> A              
     e(  7 -  7) =     -7.56035  eV     1   --> A              
     e(  8 -  8) =     -6.80944  eV     1   --> A              
     e(  9 -  9) =     -6.80082  eV     1   --> A              
     e( 10 - 10) =     -6.63701  eV     1   --> A              
     e( 11 - 11) =     -6.60263  eV     1   --> A              
     e( 12 - 12) =     -6.51161  eV     1   --> A              
     e( 13 - 13) =     -2.42144  eV     1   --> A              
     e( 14 - 14) =     -2.38338  eV     1   --> A              
     e( 15 - 15) =     -2.27984  eV     1   --> A              
     e( 16 - 16) =     -1.80917  eV     1   --> A              
     e( 17 - 17) =      2.56350  eV     1   --> A              
     e( 18 - 18) =      5.70738  eV     1   --> A              
     e( 19 - 19) =      5.85042  eV     1   --> A              
     e( 20 - 20) =      5.96587  eV     1   --> A              

 **************************************************************************

 **************************************************************************

                    xk=(  -0.05000,   0.03333,  -0.05000  )

     Band symmetry, C_1 (1)     point group:

     e(  1 -  1) =    -17.32895  eV     1   --> A              
     e(  2 -  2) =    -16.73479  eV     1   --> A              
     e(  3 -  3) =    -16.70826  eV     1   --> A              
     e(  4 -  4) =    -16.68391  eV     1   --> A              
     e(  5 -  5) =     -7.61916  eV     1   --> A              
     e(  6 -  6) =     -7.60464  eV     1   --> A              
     e(  7 -  7) =     -7.57124  eV     1   --> A              
     e(  8 -  8) =     -6.80603  eV     1   --> A              
     e(  9 -  9) =     -6.80096  eV     1   --> A              
     e( 10 - 10) =     -6.62604  eV     1   --> A              
     e( 11 - 11) =     -6.59260  eV     1   --> A              
     e( 12 - 12) =     -6.52322  eV     1   --> A              
     e( 13 - 13) =     -2.40838  eV     1   --> A              
     e( 14 - 14) =     -2.37277  eV     1   --> A              
     e( 15 - 15) =     -2.29442  eV     1   --> A              
     e( 16 - 16) =     -1.80513  eV     1   --> A              
     e( 17 - 17) =      2.52910  eV     1   --> A              
     e( 18 - 18) =      5.72220  eV     1   --> A              
     e( 19 - 19) =      5.83478  eV     1   --> A              
     e( 20 - 20) =      5.92914  eV     1   --> A              

 **************************************************************************

 **************************************************************************

                    xk=(  -0.03750,   0.02500,  -0.03750  )

     Band symmetry, C_1 (1)     point group:

     e(  1 -  1) =    -17.33241  eV     1   --> A              
     e(  2 -  2) =    -16.72712  eV     1   --> A              
     e(  3 -  3) =    -16.70731  eV     1   --> A              
     e(  4 -  4) =    -16.68874  eV     1   --> A              
     e(  5 -  5) =     -7.61744  eV     1   --> A              
     e(  6 -  6) =     -7.60469  eV     1   --> A              
     e(  7 -  7) =     -7.58124  eV     1   --> A              
     e(  8 -  8) =     -6.80364  eV     1   --> A              
     e(  9 -  9) =     -6.80101  eV     1   --> A              
     e( 10 - 10) =     -6.61399  eV     1   --> A              
     e( 11 - 11) =     -6.58473  eV     1   --> A              
     e( 12 - 12) =     -6.53541  eV     1   --> A              
     e( 13 - 13) =     -2.39493  eV     1   --> A              
     e( 14 - 14) =     -2.36421  eV     1   --> A              
     e( 15 - 15) =     -2.30905  eV     1   --> A              
     e( 16 - 16) =     -1.80198  eV     1   --> A              
     e( 17 - 17) =      2.50203  eV     1   --> A              
     e( 18 - 18) =      5.73939  eV     1   --> A              
     e( 19 - 19) =      5.82228  eV     1   --> A              
     e( 20 - 20) =      5.89468  eV     1   --> A              

 **************************************************************************

 **************************************************************************

                    xk=(  -0.02500,   0.01667,  -0.02500  )

     Band symmetry, C_1 (1)     point group:

     e(  1 -  1) =    -17.33489  eV     1   --> A              
     e(  2 -  2) =    -16.71975  eV     1   --> A              
     e(  3 -  3) =    -16.70663  eV     1   --> A              
     e(  4 -  4) =    -16.69406  eV     1   --> A              
     e(  5 -  5) =     -7.61448  eV     1   --> A              
     e(  6 -  6) =     -7.60473  eV     1   --> A              
     e(  7 -  7) =     -7.59021  eV     1   --> A              
     e(  8 -  8) =     -6.80209  eV     1   --> A              
     e(  9 -  9) =     -6.80099  eV     1   --> A              
     e( 10 - 10) =     -6.60119  eV     1   --> A              
     e( 11 - 11) =     -6.57908  eV     1   --> A              
     e( 12 - 12) =     -6.54811  eV     1   --> A              
     e( 13 - 13) =     -2.38113  eV     1   --> A              
     e( 14 - 14) =     -2.35790  eV     1   --> A              
     e( 15 - 15) =     -2.32368  eV     1   --> A              
     e( 16 - 16) =     -1.79970  eV     1   --> A              
     e( 17 - 17) =      2.48252  eV     1   --> A              
     e( 18 - 18) =      5.75903  eV     1   --> A              
     e( 19 - 19) =      5.81318  eV     1   --> A              
     e( 20 - 20) =      5.86260  eV     1   --> A              

 **************************************************************************

 **************************************************************************

                    xk=(  -0.01250,   0.00833,  -0.01250  )

     Band symmetry, C_1 (1)     point group:

     e(  1 -  1) =    -17.33638  eV     1   --> A              
     e(  2 -  2) =    -16.71272  eV     1   --> A              
     e(  3 -  3) =    -16.70622  eV     1   --> A              
     e(  4 -  4) =    -16.69985  eV     1   --> A              
     e(  5 -  5) =     -7.61024  eV     1   --> A              
     e(  6 -  6) =     -7.60476  eV     1   --> A              
     e(  7 -  7) =     -7.59807  eV     1   --> A              
     e(  8 -  8) =     -6.80122  eV     1   --> A              
     e(  9 -  9) =     -6.80096  eV     1   --> A              
     e( 10 - 10) =     -6.58794  eV     1   --> A              
     e( 11 - 11) =     -6.57566  eV     1   --> A              
     e( 12 - 12) =     -6.56119  eV     1   --> A              
     e( 13 - 13) =     -2.36705  eV     1   --> A              
     e( 14 - 14) =     -2.35403  eV     1   --> A              
     e( 15 - 15) =     -2.33827  eV     1   --> A              
     e( 16 - 16) =     -1.79833  eV     1   --> A              
     e( 17 - 17) =      2.47075  eV     1   --> A              
     e( 18 - 18) =      5.78116  eV     1   --> A              
     e( 19 - 19) =      5.80765  eV     1   --> A              
     e( 20 - 20) =      5.83295  eV     1   --> A              

 **************************************************************************

 **************************************************************************

                    xk=(   0.00000,   0.00000,   0.00000  )

     point group T    (23)  
     there are  4 classes
     the character table:

       E     3C2   4C3   4C3' 
A      1.00  1.00  1.00  1.00
E      1.00  1.00 -0.50 -0.50
E*     1.00  1.00 -0.50 -0.50
T      3.00 -1.00  0.00  0.00
     imaginary part
A      0.00  0.00  0.00  0.00
E      0.00  0.00  0.87 -0.87
E*     0.00  0.00 -0.87  0.87
T      0.00  0.00  0.00  0.00

     the symmetry operations in each class and the name of the first element:

     E        1
                                                                 
     3C2      2    3    4
                                                                 
     4C3      9   12   10   11
                                                                 
     4C3'     5    7    8    6
                                                                 

     Band symmetry, T    (23)   point group:

     e(  1 -  1) =    -17.33688  eV     1   --> A              
     e(  2 -  4) =    -16.70608  eV     3   --> T              
     e(  5 -  7) =     -7.60478  eV     3   --> T              
     e(  8 -  9) =     -6.80095  eV     2   --> E              
     e(  8 -  9) =     -6.80095  eV     2   --> E*             
     e( 10 - 12) =     -6.57454  eV     3   --> T              
     e( 13 - 15) =     -2.35275  eV     3   --> T              
     e( 16 - 16) =     -1.79788  eV     1   --> A              
     e( 17 - 17) =      2.46681  eV     1   --> A              
     e( 18 - 20) =      5.80580  eV     3   --> T              

 **************************************************************************

     BANDS        :     11.53s CPU     13.31s WALL


   This run was terminated on:   6:31: 7  14Dec2022            

=------------------------------------------------------------------------------=
   JOB DONE.
=------------------------------------------------------------------------------=
