
     Program PWSCF v.7.1 starts on 14Dec2022 at  5:42:32 

     This program is part of the open-source Quantum ESPRESSO suite
     for quantum simulation of materials; please cite
         "P. Giannozzi et al., J. Phys.:Condens. Matter 21 395502 (2009);
         "P. Giannozzi et al., J. Phys.:Condens. Matter 29 465901 (2017);
         "P. Giannozzi et al., J. Chem. Phys. 152 154105 (2020);
          URL http://www.quantum-espresso.org", 
     in publications or presentations arising from this work. More details at
     http://www.quantum-espresso.org/quote

     Parallel version (MPI), running on    14 processors

     MPI processes distributed on     1 nodes
     23961 MiB available memory on the printing compute node when the environment starts

     Reading input from pwscf.in

     Current dimensions of program PWSCF are:
     Max number of different atomic species (ntypx) = 10
     Max number of k-points (npk) =  40000
     Max angular momentum in pseudopotentials (lmaxx) =  4
     Message from routine setup:
     using ibrav=0 with symmetry is DISCOURAGED, use correct ibrav instead

     R & G space division:  proc/nbgrp/npool/nimage =      14
     Subspace diagonalization in iterative solution of the eigenvalue problem:
     a serial algorithm will be used


     Parallelization info
     --------------------
     sticks:   dense  smooth     PW     G-vecs:    dense   smooth      PW
     Min         262     130     36                11930     4206     630
     Max         263     131     38                11933     4207     633
     Sum        3673    1829    517               167037    58893    8829

     Using Slab Decomposition



     bravais-lattice index     =            0
     lattice parameter (alat)  =       9.7982  a.u.
     unit-cell volume          =     940.6821 (a.u.)^3
     number of atoms/cell      =           16
     number of atomic types    =            2
     number of electrons       =        32.00
     number of Kohn-Sham states=           20
     kinetic-energy cutoff     =      60.0000  Ry
     charge density cutoff     =     480.0000  Ry
     scf convergence threshold =      3.2E-09
     mixing beta               =       0.4000
     number of iterations used =            8  plain     mixing
     Exchange-correlation= PBE
                           (   1   4   3   4   0   0   0)

     celldm(1)=   9.798230  celldm(2)=   0.000000  celldm(3)=   0.000000
     celldm(4)=   0.000000  celldm(5)=   0.000000  celldm(6)=   0.000000

     crystal axes: (cart. coord. in units of alat)
               a(1) = (   1.000000   0.000000   0.000000 )  
               a(2) = (   0.000000   1.000000   0.000000 )  
               a(3) = (   0.000000   0.000000   1.000000 )  

     reciprocal axes: (cart. coord. in units 2 pi/alat)
               b(1) = (  1.000000  0.000000  0.000000 )  
               b(2) = (  0.000000  1.000000  0.000000 )  
               b(3) = (  0.000000  0.000000  1.000000 )  


     PseudoPot. # 1 for H  read from file:
     ./pseudo/H.pbe-rrkjus_psl.1.0.0.UPF
     MD5 check sum: 3f4114867bd07edc7f1424d066fc1888
     Pseudo is Ultrasoft, Zval =  1.0
     Generated using &quot;atomic&quot; code by A. Dal Corso  v.6.3MaX
     Using radial grid of  929 points,  2 beta functions with: 
                l(1) =   0
                l(2) =   0
     Q(r) pseudized with 0 coefficients 


     PseudoPot. # 2 for N  read from file:
     ./pseudo/N.pbe-n-rrkjus_psl.1.0.0.UPF
     MD5 check sum: ada94e3ed05223de5319d0572dc76806
     Pseudo is Ultrasoft + core correction, Zval =  5.0
     Generated using &quot;atomic&quot; code by A. Dal Corso  v.6.3MaX
     Using radial grid of 1085 points,  4 beta functions with: 
                l(1) =   0
                l(2) =   0
                l(3) =   1
                l(4) =   1
     Q(r) pseudized with 0 coefficients 


     atomic species   valence    mass     pseudopotential
        H              1.00     1.00794     H ( 1.00)
        N              5.00    14.00670     N ( 1.00)

     12 Sym. Ops. (no inversion) found ( 9 have fractional translation)


                                    s                        frac. trans.

      isym =  1     identity                                     

 cryst.   s( 1) = (     1          0          0      )
                  (     0          1          0      )
                  (     0          0          1      )

 cart.    s( 1) = (  1.0000000  0.0000000  0.0000000 )
                  (  0.0000000  1.0000000  0.0000000 )
                  (  0.0000000  0.0000000  1.0000000 )


      isym =  2     180 deg rotation - cart. axis [0,0,1]        

 cryst.   s( 2) = (    -1          0          0      )    f =(  0.5000000 )
                  (     0         -1          0      )       (  0.0000000 )
                  (     0          0          1      )       ( -0.5000000 )

 cart.    s( 2) = ( -1.0000000  0.0000000  0.0000000 )    f =(  0.5000000 )
                  (  0.0000000 -1.0000000  0.0000000 )       (  0.0000000 )
                  (  0.0000000  0.0000000  1.0000000 )       ( -0.5000000 )


      isym =  3     180 deg rotation - cart. axis [0,1,0]        

 cryst.   s( 3) = (    -1          0          0      )    f =(  0.0000000 )
                  (     0          1          0      )       ( -0.5000000 )
                  (     0          0         -1      )       (  0.5000000 )

 cart.    s( 3) = ( -1.0000000  0.0000000  0.0000000 )    f =(  0.0000000 )
                  (  0.0000000  1.0000000  0.0000000 )       ( -0.5000000 )
                  (  0.0000000  0.0000000 -1.0000000 )       (  0.5000000 )


      isym =  4     180 deg rotation - cart. axis [1,0,0]        

 cryst.   s( 4) = (     1          0          0      )    f =( -0.5000000 )
                  (     0         -1          0      )       (  0.5000000 )
                  (     0          0         -1      )       (  0.0000000 )

 cart.    s( 4) = (  1.0000000  0.0000000  0.0000000 )    f =( -0.5000000 )
                  (  0.0000000 -1.0000000  0.0000000 )       (  0.5000000 )
                  (  0.0000000  0.0000000 -1.0000000 )       (  0.0000000 )


      isym =  5     120 deg rotation - cart. axis [-1,-1,-1]     

 cryst.   s( 5) = (     0          0          1      )
                  (     1          0          0      )
                  (     0          1          0      )

 cart.    s( 5) = (  0.0000000  1.0000000  0.0000000 )
                  (  0.0000000  0.0000000  1.0000000 )
                  (  1.0000000  0.0000000  0.0000000 )


      isym =  6     120 deg rotation - cart. axis [-1,1,1]       

 cryst.   s( 6) = (     0          0         -1      )    f =(  0.0000000 )
                  (    -1          0          0      )       ( -0.5000000 )
                  (     0          1          0      )       (  0.5000000 )

 cart.    s( 6) = (  0.0000000 -1.0000000  0.0000000 )    f =(  0.0000000 )
                  (  0.0000000  0.0000000  1.0000000 )       ( -0.5000000 )
                  ( -1.0000000  0.0000000  0.0000000 )       (  0.5000000 )


      isym =  7     120 deg rotation - cart. axis [1,1,-1]       

 cryst.   s( 7) = (     0          0         -1      )    f =( -0.5000000 )
                  (     1          0          0      )       (  0.5000000 )
                  (     0         -1          0      )       (  0.0000000 )

 cart.    s( 7) = (  0.0000000  1.0000000  0.0000000 )    f =( -0.5000000 )
                  (  0.0000000  0.0000000 -1.0000000 )       (  0.5000000 )
                  ( -1.0000000  0.0000000  0.0000000 )       (  0.0000000 )


      isym =  8     120 deg rotation - cart. axis [1,-1,1]       

 cryst.   s( 8) = (     0          0          1      )    f =(  0.5000000 )
                  (    -1          0          0      )       (  0.0000000 )
                  (     0         -1          0      )       ( -0.5000000 )

 cart.    s( 8) = (  0.0000000 -1.0000000  0.0000000 )    f =(  0.5000000 )
                  (  0.0000000  0.0000000 -1.0000000 )       (  0.0000000 )
                  (  1.0000000  0.0000000  0.0000000 )       ( -0.5000000 )


      isym =  9     120 deg rotation - cart. axis [1,1,1]        

 cryst.   s( 9) = (     0          1          0      )
                  (     0          0          1      )
                  (     1          0          0      )

 cart.    s( 9) = (  0.0000000  0.0000000  1.0000000 )
                  (  1.0000000  0.0000000  0.0000000 )
                  (  0.0000000  1.0000000  0.0000000 )


      isym = 10     120 deg rotation - cart. axis [-1,1,-1]      

 cryst.   s(10) = (     0         -1          0      )    f =( -0.5000000 )
                  (     0          0         -1      )       (  0.5000000 )
                  (     1          0          0      )       (  0.0000000 )

 cart.    s(10) = (  0.0000000  0.0000000  1.0000000 )    f =( -0.5000000 )
                  ( -1.0000000  0.0000000  0.0000000 )       (  0.5000000 )
                  (  0.0000000 -1.0000000  0.0000000 )       (  0.0000000 )


      isym = 11     120 deg rotation - cart. axis [1,-1,-1]      

 cryst.   s(11) = (     0         -1          0      )    f =(  0.5000000 )
                  (     0          0          1      )       (  0.0000000 )
                  (    -1          0          0      )       ( -0.5000000 )

 cart.    s(11) = (  0.0000000  0.0000000 -1.0000000 )    f =(  0.5000000 )
                  ( -1.0000000  0.0000000  0.0000000 )       (  0.0000000 )
                  (  0.0000000  1.0000000  0.0000000 )       ( -0.5000000 )


      isym = 12     120 deg rotation - cart. axis [-1,-1,1]      

 cryst.   s(12) = (     0          1          0      )    f =(  0.0000000 )
                  (     0          0         -1      )       ( -0.5000000 )
                  (    -1          0          0      )       (  0.5000000 )

 cart.    s(12) = (  0.0000000  0.0000000 -1.0000000 )    f =(  0.0000000 )
                  (  1.0000000  0.0000000  0.0000000 )       ( -0.5000000 )
                  (  0.0000000 -1.0000000  0.0000000 )       (  0.5000000 )


   Cartesian axes

     site n.     atom                  positions (alat units)
         1           N   tau(   1) = (   0.1963349   0.1963349   0.1963349  )
         2           N   tau(   2) = (   0.3036651   0.8036651   0.6963349  )
         3           N   tau(   3) = (   0.8036651   0.6963349   0.3036651  )
         4           N   tau(   4) = (   0.6963349   0.3036651   0.8036651  )
         5           H   tau(   5) = (   0.3503476   0.2702379   0.0959412  )
         6           H   tau(   6) = (   0.1496524   0.7297621   0.5959412  )
         7           H   tau(   7) = (   0.6496524   0.7702379   0.4040588  )
         8           H   tau(   8) = (   0.8503476   0.2297621   0.9040588  )
         9           H   tau(   9) = (   0.0959412   0.3503476   0.2702379  )
        10           H   tau(  10) = (   0.5959412   0.1496524   0.7297621  )
        11           H   tau(  11) = (   0.4040588   0.6496524   0.7702379  )
        12           H   tau(  12) = (   0.9040588   0.8503476   0.2297621  )
        13           H   tau(  13) = (   0.2702379   0.0959412   0.3503476  )
        14           H   tau(  14) = (   0.7297621   0.5959412   0.1496524  )
        15           H   tau(  15) = (   0.7702379   0.4040588   0.6496524  )
        16           H   tau(  16) = (   0.2297621   0.9040588   0.8503476  )

   Crystallographic axes

     site n.     atom                  positions (cryst. coord.)
         1           N   tau(   1) = (  0.1963349  0.1963349  0.1963349  )
         2           N   tau(   2) = (  0.3036651  0.8036651  0.6963349  )
         3           N   tau(   3) = (  0.8036651  0.6963349  0.3036651  )
         4           N   tau(   4) = (  0.6963349  0.3036651  0.8036651  )
         5           H   tau(   5) = (  0.3503476  0.2702379  0.0959412  )
         6           H   tau(   6) = (  0.1496524  0.7297621  0.5959412  )
         7           H   tau(   7) = (  0.6496524  0.7702379  0.4040588  )
         8           H   tau(   8) = (  0.8503476  0.2297621  0.9040588  )
         9           H   tau(   9) = (  0.0959412  0.3503476  0.2702379  )
        10           H   tau(  10) = (  0.5959412  0.1496524  0.7297621  )
        11           H   tau(  11) = (  0.4040588  0.6496524  0.7702379  )
        12           H   tau(  12) = (  0.9040588  0.8503476  0.2297621  )
        13           H   tau(  13) = (  0.2702379  0.0959412  0.3503476  )
        14           H   tau(  14) = (  0.7297621  0.5959412  0.1496524  )
        15           H   tau(  15) = (  0.7702379  0.4040588  0.6496524  )
        16           H   tau(  16) = (  0.2297621  0.9040588  0.8503476  )

     number of k points=    24  Marzari-Vanderbilt smearing, width (Ry)=  0.0147
                       cart. coord. in units 2pi/alat
        k(    1) = (   0.0000000   0.0000000   0.0000000), wk =   0.0058309
        k(    2) = (   0.0000000   0.0000000   0.1428571), wk =   0.0349854
        k(    3) = (   0.0000000   0.0000000   0.2857143), wk =   0.0349854
        k(    4) = (   0.0000000   0.0000000   0.4285714), wk =   0.0349854
        k(    5) = (   0.0000000   0.1428571   0.1428571), wk =   0.0699708
        k(    6) = (   0.0000000   0.1428571   0.2857143), wk =   0.0699708
        k(    7) = (   0.0000000   0.1428571   0.4285714), wk =   0.0699708
        k(    8) = (   0.0000000   0.2857143   0.2857143), wk =   0.0699708
        k(    9) = (   0.0000000   0.2857143   0.4285714), wk =   0.0699708
        k(   10) = (   0.0000000   0.4285714   0.4285714), wk =   0.0699708
        k(   11) = (   0.1428571   0.1428571   0.1428571), wk =   0.0466472
        k(   12) = (   0.1428571   0.1428571   0.2857143), wk =   0.1399417
        k(   13) = (   0.1428571   0.1428571   0.4285714), wk =   0.1399417
        k(   14) = (   0.1428571   0.2857143   0.2857143), wk =   0.1399417
        k(   15) = (   0.1428571   0.2857143   0.4285714), wk =   0.1399417
        k(   16) = (   0.1428571   0.4285714   0.4285714), wk =   0.1399417
        k(   17) = (   0.2857143   0.2857143   0.2857143), wk =   0.0466472
        k(   18) = (   0.2857143   0.2857143   0.4285714), wk =   0.1399417
        k(   19) = (   0.2857143   0.4285714   0.4285714), wk =   0.1399417
        k(   20) = (   0.4285714   0.4285714   0.4285714), wk =   0.0466472
        k(   21) = (   0.0000000   0.2857143   0.1428571), wk =   0.0699708
        k(   22) = (   0.0000000   0.4285714   0.1428571), wk =   0.0699708
        k(   23) = (   0.0000000   0.4285714   0.2857143), wk =   0.0699708
        k(   24) = (  -0.1428571   0.4285714   0.2857143), wk =   0.1399417

                       cryst. coord.
        k(    1) = (   0.0000000   0.0000000   0.0000000), wk =   0.0058309
        k(    2) = (   0.0000000   0.0000000   0.1428571), wk =   0.0349854
        k(    3) = (   0.0000000   0.0000000   0.2857143), wk =   0.0349854
        k(    4) = (   0.0000000   0.0000000   0.4285714), wk =   0.0349854
        k(    5) = (   0.0000000   0.1428571   0.1428571), wk =   0.0699708
        k(    6) = (   0.0000000   0.1428571   0.2857143), wk =   0.0699708
        k(    7) = (   0.0000000   0.1428571   0.4285714), wk =   0.0699708
        k(    8) = (   0.0000000   0.2857143   0.2857143), wk =   0.0699708
        k(    9) = (   0.0000000   0.2857143   0.4285714), wk =   0.0699708
        k(   10) = (   0.0000000   0.4285714   0.4285714), wk =   0.0699708
        k(   11) = (   0.1428571   0.1428571   0.1428571), wk =   0.0466472
        k(   12) = (   0.1428571   0.1428571   0.2857143), wk =   0.1399417
        k(   13) = (   0.1428571   0.1428571   0.4285714), wk =   0.1399417
        k(   14) = (   0.1428571   0.2857143   0.2857143), wk =   0.1399417
        k(   15) = (   0.1428571   0.2857143   0.4285714), wk =   0.1399417
        k(   16) = (   0.1428571   0.4285714   0.4285714), wk =   0.1399417
        k(   17) = (   0.2857143   0.2857143   0.2857143), wk =   0.0466472
        k(   18) = (   0.2857143   0.2857143   0.4285714), wk =   0.1399417
        k(   19) = (   0.2857143   0.4285714   0.4285714), wk =   0.1399417
        k(   20) = (   0.4285714   0.4285714   0.4285714), wk =   0.0466472
        k(   21) = (   0.0000000   0.2857143   0.1428571), wk =   0.0699708
        k(   22) = (   0.0000000   0.4285714   0.1428571), wk =   0.0699708
        k(   23) = (   0.0000000   0.4285714   0.2857143), wk =   0.0699708
        k(   24) = (  -0.1428571   0.4285714   0.2857143), wk =   0.1399417

     Dense  grid:   167037 G-vectors     FFT dimensions: (  72,  72,  72)

     Smooth grid:    58893 G-vectors     FFT dimensions: (  50,  50,  50)

     Dynamical RAM for                 wfc:       0.16 MB

     Dynamical RAM for     wfc (w. buffer):       4.02 MB

     Dynamical RAM for           str. fact:       0.36 MB

     Dynamical RAM for           local pot:       0.00 MB

     Dynamical RAM for          nlocal pot:       0.45 MB

     Dynamical RAM for                qrad:       1.00 MB

     Dynamical RAM for          rho,v,vnew:       1.26 MB

     Dynamical RAM for               rhoin:       0.42 MB

     Dynamical RAM for            rho*nmix:       2.91 MB

     Dynamical RAM for           G-vectors:       0.71 MB

     Dynamical RAM for          h,s,v(r/c):       0.07 MB

     Dynamical RAM for          <psi|beta>:       0.02 MB

     Dynamical RAM for                 psi:       0.32 MB

     Dynamical RAM for                hpsi:       0.32 MB

     Dynamical RAM for                spsi:       0.32 MB

     Dynamical RAM for      wfcinit/wfcrot:       0.47 MB

     Dynamical RAM for           addusdens:      10.01 MB

     Dynamical RAM for          addusforce:      14.12 MB

     Dynamical RAM for         addusstress:       9.10 MB

     Estimated static dynamical RAM per process >       9.96 MB

     Estimated max dynamical RAM per process >      27.00 MB

     Estimated total dynamical RAM >     377.97 MB

     Check: negative core charge=   -0.000001

     Initial potential from superposition of free atoms

     starting charge      31.9999, renormalised to      32.0000
     Starting wfcs are   28 randomized atomic wfcs

     total cpu time spent up to now is        2.7 secs

     Self-consistent Calculation

     iteration #  1     ecut=    60.00 Ry     beta= 0.40
     Davidson diagonalization with overlap

---- Real-time Memory Report at c_bands before calling an iterative solver
            48 MiB given to the printing process from OS
             0 MiB allocation reported by mallinfo(arena+hblkhd)
         23701 MiB available memory on the node where the printing process lives
------------------
     ethr =  1.00E-02,  avg # of iterations =  3.0

     total cpu time spent up to now is        6.5 secs

     total energy              =     -95.85205199 Ry
     estimated scf accuracy    <       2.21540808 Ry

     iteration #  2     ecut=    60.00 Ry     beta= 0.40
     Davidson diagonalization with overlap

---- Real-time Memory Report at c_bands before calling an iterative solver
            52 MiB given to the printing process from OS
             0 MiB allocation reported by mallinfo(arena+hblkhd)
         23591 MiB available memory on the node where the printing process lives
------------------
     ethr =  6.92E-03,  avg # of iterations =  2.0

     total cpu time spent up to now is        9.7 secs

     total energy              =     -96.24373266 Ry
     estimated scf accuracy    <       0.11900765 Ry

     iteration #  3     ecut=    60.00 Ry     beta= 0.40
     Davidson diagonalization with overlap

---- Real-time Memory Report at c_bands before calling an iterative solver
            53 MiB given to the printing process from OS
             0 MiB allocation reported by mallinfo(arena+hblkhd)
         23584 MiB available memory on the node where the printing process lives
------------------
     ethr =  3.72E-04,  avg # of iterations =  5.0

     total cpu time spent up to now is       12.8 secs

     total energy              =     -96.23294715 Ry
     estimated scf accuracy    <       0.04185181 Ry

     iteration #  4     ecut=    60.00 Ry     beta= 0.40
     Davidson diagonalization with overlap

---- Real-time Memory Report at c_bands before calling an iterative solver
            53 MiB given to the printing process from OS
             0 MiB allocation reported by mallinfo(arena+hblkhd)
         23582 MiB available memory on the node where the printing process lives
------------------
     ethr =  1.31E-04,  avg # of iterations =  2.9

     total cpu time spent up to now is       15.5 secs

     total energy              =     -96.23524059 Ry
     estimated scf accuracy    <       0.00178918 Ry

     iteration #  5     ecut=    60.00 Ry     beta= 0.40
     Davidson diagonalization with overlap

---- Real-time Memory Report at c_bands before calling an iterative solver
            53 MiB given to the printing process from OS
             0 MiB allocation reported by mallinfo(arena+hblkhd)
         23580 MiB available memory on the node where the printing process lives
------------------
     ethr =  5.59E-06,  avg # of iterations =  6.3

     total cpu time spent up to now is       19.3 secs

     total energy              =     -96.23503795 Ry
     estimated scf accuracy    <       0.00071864 Ry

     iteration #  6     ecut=    60.00 Ry     beta= 0.40
     Davidson diagonalization with overlap

---- Real-time Memory Report at c_bands before calling an iterative solver
            53 MiB given to the printing process from OS
             0 MiB allocation reported by mallinfo(arena+hblkhd)
         23577 MiB available memory on the node where the printing process lives
------------------
     ethr =  2.25E-06,  avg # of iterations =  2.2

     total cpu time spent up to now is       22.7 secs

     total energy              =     -96.23522301 Ry
     estimated scf accuracy    <       0.00011501 Ry

     iteration #  7     ecut=    60.00 Ry     beta= 0.40
     Davidson diagonalization with overlap

---- Real-time Memory Report at c_bands before calling an iterative solver
            54 MiB given to the printing process from OS
             0 MiB allocation reported by mallinfo(arena+hblkhd)
         23576 MiB available memory on the node where the printing process lives
------------------
     ethr =  3.59E-07,  avg # of iterations =  2.0

     total cpu time spent up to now is       25.9 secs

     total energy              =     -96.23524998 Ry
     estimated scf accuracy    <       0.00000903 Ry

     iteration #  8     ecut=    60.00 Ry     beta= 0.40
     Davidson diagonalization with overlap

---- Real-time Memory Report at c_bands before calling an iterative solver
            54 MiB given to the printing process from OS
             0 MiB allocation reported by mallinfo(arena+hblkhd)
         23574 MiB available memory on the node where the printing process lives
------------------
     ethr =  2.82E-08,  avg # of iterations =  2.0

     total cpu time spent up to now is       29.2 secs

     total energy              =     -96.23525281 Ry
     estimated scf accuracy    <       0.00000247 Ry

     iteration #  9     ecut=    60.00 Ry     beta= 0.40
     Davidson diagonalization with overlap

---- Real-time Memory Report at c_bands before calling an iterative solver
            54 MiB given to the printing process from OS
             0 MiB allocation reported by mallinfo(arena+hblkhd)
         23572 MiB available memory on the node where the printing process lives
------------------
     ethr =  7.73E-09,  avg # of iterations =  1.0

     total cpu time spent up to now is       31.6 secs

     total energy              =     -96.23525156 Ry
     estimated scf accuracy    <       0.00000220 Ry

     iteration # 10     ecut=    60.00 Ry     beta= 0.40
     Davidson diagonalization with overlap

---- Real-time Memory Report at c_bands before calling an iterative solver
            54 MiB given to the printing process from OS
             0 MiB allocation reported by mallinfo(arena+hblkhd)
         23570 MiB available memory on the node where the printing process lives
------------------
     ethr =  6.89E-09,  avg # of iterations =  2.0

     total cpu time spent up to now is       34.9 secs

     total energy              =     -96.23525218 Ry
     estimated scf accuracy    <       0.00000037 Ry

     iteration # 11     ecut=    60.00 Ry     beta= 0.40
     Davidson diagonalization with overlap

---- Real-time Memory Report at c_bands before calling an iterative solver
            54 MiB given to the printing process from OS
             0 MiB allocation reported by mallinfo(arena+hblkhd)
         23569 MiB available memory on the node where the printing process lives
------------------
     ethr =  1.16E-09,  avg # of iterations =  2.0

     total cpu time spent up to now is       37.9 secs

     End of self-consistent calculation

          k = 0.0000 0.0000 0.0000 (  7249 PWs)   bands (ev):

   -17.3543 -16.7321 -16.7321 -16.7321  -7.6210  -7.6210  -7.6210  -6.8254
    -6.8254  -6.6009  -6.6009  -6.6009  -2.3772  -2.3772  -2.3772  -1.8220
     2.4339   5.7827   5.7827   5.7827

     occupation numbers 
     1.0000   1.0000   1.0000   1.0000   1.0000   1.0000   1.0000   1.0000
     1.0000   1.0000   1.0000   1.0000   1.0000   1.0000   1.0000   1.0000
     0.0000   0.0000   0.0000   0.0000

          k = 0.0000 0.0000 0.1429 (  7336 PWs)   bands (ev):

   -17.3284 -16.7962 -16.7283 -16.7002  -7.6386  -7.6162  -7.5454  -6.8610
    -6.8036  -6.7106  -6.6250  -6.5289  -2.4802  -2.4299  -2.2742  -1.8460
     2.6369   5.6053   5.9459   6.0013

     occupation numbers 
     1.0000   1.0000   1.0000   1.0000   1.0000   1.0000   1.0000   1.0000
     1.0000   1.0000   1.0000   1.0000   1.0000   1.0000   1.0000   1.0000
     0.0000   0.0000   0.0000   0.0000

          k = 0.0000 0.0000 0.2857 (  7372 PWs)   bands (ev):

   -17.2547 -16.8949 -16.7183 -16.6906  -7.6180  -7.6031  -7.4122  -6.9548
    -6.8129  -6.7574  -6.6821  -6.5170  -2.5685  -2.5358  -2.1781  -1.9116
     3.1820   5.2991   6.2727   6.3712

     occupation numbers 
     1.0000   1.0000   1.0000   1.0000   1.0000   1.0000   1.0000   1.0000
     1.0000   1.0000   1.0000   1.0000   1.0000   1.0000   1.0000   1.0000
     0.0000   0.0000   0.0000   0.0000

          k = 0.0000 0.0000 0.4286 (  7388 PWs)   bands (ev):

   -17.1451 -17.0178 -16.7054 -16.6944  -7.5930  -7.5897  -7.2463  -7.0863
    -6.8546  -6.8100  -6.6389  -6.5619  -2.6201  -2.6115  -2.0880  -1.9983
     3.9254   4.6968   6.6137   6.7710

     occupation numbers 
     1.0000   1.0000   1.0000   1.0000   1.0000   1.0000   1.0000   1.0000
     1.0000   1.0000   1.0000   1.0000   1.0000   1.0000   1.0000   1.0000
     0.0000   0.0000   0.0000   0.0000

          k = 0.0000 0.1429 0.1429 (  7369 PWs)   bands (ev):

   -17.3035 -16.8176 -16.7417 -16.6923  -7.6266  -7.6181  -7.5067  -6.8751
    -6.8201  -6.7119  -6.6897  -6.4942  -2.5100  -2.4810  -2.2309  -1.8679
     2.8242   5.6190   5.9442   6.1772

     occupation numbers 
     1.0000   1.0000   1.0000   1.0000   1.0000   1.0000   1.0000   1.0000
     1.0000   1.0000   1.0000   1.0000   1.0000   1.0000   1.0000   1.0000
     0.0000   0.0000   0.0000   0.0000

          k = 0.0000 0.1429 0.2857 (  7377 PWs)   bands (ev):

   -17.2328 -16.8954 -16.7385 -16.6929  -7.6150  -7.6039  -7.4018  -6.9390
    -6.8795  -6.7662  -6.6818  -6.4850  -2.5708  -2.5639  -2.1570  -1.9265
     3.3347   5.4183   6.0807   6.5750

     occupation numbers 
     1.0000   1.0000   1.0000   1.0000   1.0000   1.0000   1.0000   1.0000
     1.0000   1.0000   1.0000   1.0000   1.0000   1.0000   1.0000   1.0000
     0.0000   0.0000   0.0000   0.0000

          k = 0.0000 0.1429 0.4286 (  7375 PWs)   bands (ev):

   -17.1281 -17.0079 -16.7222 -16.7047  -7.6037  -7.5946  -7.2507  -7.0820
    -6.8934  -6.8396  -6.6048  -6.5278  -2.6180  -2.6149  -2.0808  -2.0028
     4.0481   4.8118   6.4357   6.7790

     occupation numbers 
     1.0000   1.0000   1.0000   1.0000   1.0000   1.0000   1.0000   1.0000
     1.0000   1.0000   1.0000   1.0000   1.0000   1.0000   1.0000   1.0000
     0.0000   0.0000   0.0000   0.0000

          k = 0.0000 0.2857 0.2857 (  7385 PWs)   bands (ev):

   -17.1711 -16.9155 -16.7668 -16.7083  -7.6196  -7.5877  -7.3792  -7.0146
    -6.9107  -6.7716  -6.6490  -6.4738  -2.6078  -2.5823  -2.1154  -1.9652
     3.7612   5.5612   5.9272   6.8061

     occupation numbers 
     1.0000   1.0000   1.0000   1.0000   1.0000   1.0000   1.0000   1.0000
     1.0000   1.0000   1.0000   1.0000   1.0000   1.0000   1.0000   1.0000
     0.0000   0.0000   0.0000   0.0000

          k = 0.0000 0.2857 0.4286 (  7405 PWs)   bands (ev):

   -17.0818 -16.9857 -16.7613 -16.7348  -7.6134  -7.5995  -7.2918  -7.1574
    -6.8788  -6.8181  -6.5714  -6.5035  -2.6213  -2.6093  -2.0661  -2.0149
     4.3939   5.1278   6.0382   6.5134

     occupation numbers 
     1.0000   1.0000   1.0000   1.0000   1.0000   1.0000   1.0000   1.0000
     1.0000   1.0000   1.0000   1.0000   1.0000   1.0000   1.0000   1.0000
     0.0000   0.0000   0.0000   0.0000

          k = 0.0000 0.4286 0.4286 (  7383 PWs)   bands (ev):

   -17.0215 -16.9801 -16.7895 -16.7728  -7.6064  -7.5953  -7.3279  -7.2748
    -6.8005  -6.7671  -6.5635  -6.5292  -2.6158  -2.6084  -2.0498  -2.0318
     4.9031   5.4821   5.5793   6.0570

     occupation numbers 
     1.0000   1.0000   1.0000   1.0000   1.0000   1.0000   1.0000   1.0000
     1.0000   1.0000   1.0000   1.0000   1.0000   1.0000   1.0000   1.0000
     0.0000   0.0000   0.0000   0.0000

          k = 0.1429 0.1429 0.1429 (  7373 PWs)   bands (ev):

   -17.2796 -16.8312 -16.7539 -16.6920  -7.6242  -7.6128  -7.4829  -6.8886
    -6.8128  -6.7809  -6.6833  -6.4703  -2.5247  -2.5212  -2.2002  -1.8882
     2.9964   5.6402   5.9990   6.2703

     occupation numbers 
     1.0000   1.0000   1.0000   1.0000   1.0000   1.0000   1.0000   1.0000
     1.0000   1.0000   1.0000   1.0000   1.0000   1.0000   1.0000   1.0000
     0.0000   0.0000   0.0000   0.0000

          k = 0.1429 0.1429 0.2857 (  7389 PWs)   bands (ev):

   -17.2118 -16.8949 -16.7540 -16.6993  -7.6273  -7.5951  -7.4117  -6.9550
    -6.8955  -6.7773  -6.6610  -6.4636  -2.5866  -2.5613  -2.1420  -1.9412
     3.4717   5.4680   6.1503   6.5777

     occupation numbers 
     1.0000   1.0000   1.0000   1.0000   1.0000   1.0000   1.0000   1.0000
     1.0000   1.0000   1.0000   1.0000   1.0000   1.0000   1.0000   1.0000
     0.0000   0.0000   0.0000   0.0000

          k = 0.1429 0.1429 0.4286 (  7383 PWs)   bands (ev):

   -17.1119 -16.9983 -16.7366 -16.7158  -7.6183  -7.5998  -7.2890  -7.1261
    -6.8720  -6.8096  -6.5888  -6.5082  -2.6169  -2.6017  -2.0779  -2.0094
     4.1478   4.8844   6.4642   6.8111

     occupation numbers 
     1.0000   1.0000   1.0000   1.0000   1.0000   1.0000   1.0000   1.0000
     1.0000   1.0000   1.0000   1.0000   1.0000   1.0000   1.0000   1.0000
     0.0000   0.0000   0.0000   0.0000

          k = 0.1429 0.2857 0.2857 (  7400 PWs)   bands (ev):

   -17.1527 -16.9114 -16.7787 -16.7181  -7.6365  -7.5997  -7.4116  -7.0751
    -6.8820  -6.7419  -6.6250  -6.4473  -2.6045  -2.5675  -2.1088  -1.9789
     3.8626   5.5870   5.9568   6.6866

     occupation numbers 
     1.0000   1.0000   1.0000   1.0000   1.0000   1.0000   1.0000   1.0000
     1.0000   1.0000   1.0000   1.0000   1.0000   1.0000   1.0000   1.0000
     0.0000   0.0000   0.0000   0.0000

          k = 0.1429 0.2857 0.4286 (  7389 PWs)   bands (ev):

   -17.0676 -16.9765 -16.7723 -16.7455  -7.6360  -7.6197  -7.3523  -7.2292
    -6.8224  -6.7595  -6.5492  -6.4772  -2.6025  -2.5845  -2.0696  -2.0254
     4.4519   5.1484   6.0226   6.4110

     occupation numbers 
     1.0000   1.0000   1.0000   1.0000   1.0000   1.0000   1.0000   1.0000
     1.0000   1.0000   1.0000   1.0000   1.0000   1.0000   1.0000   1.0000
     0.0000   0.0000   0.0000   0.0000

          k = 0.1429 0.4286 0.4286 (  7388 PWs)   bands (ev):

   -17.0099 -16.9703 -16.7988 -16.7822  -7.6355  -7.6243  -7.3987  -7.3489
    -6.7363  -6.7005  -6.5336  -6.4958  -2.5826  -2.5734  -2.0606  -2.0453
     4.9120   5.4565   5.5327   5.9496

     occupation numbers 
     1.0000   1.0000   1.0000   1.0000   1.0000   1.0000   1.0000   1.0000
     1.0000   1.0000   1.0000   1.0000   1.0000   1.0000   1.0000   1.0000
     0.0000   0.0000   0.0000   0.0000

          k = 0.2857 0.2857 0.2857 (  7388 PWs)   bands (ev):

   -17.1015 -16.9120 -16.8033 -16.7425  -7.6578  -7.6334  -7.4654  -7.2206
    -6.8067  -6.6535  -6.5928  -6.4180  -2.5843  -2.5397  -2.0964  -2.0145
     4.1611   5.6165   5.9394   6.1860

     occupation numbers 
     1.0000   1.0000   1.0000   1.0000   1.0000   1.0000   1.0000   1.0000
     1.0000   1.0000   1.0000   1.0000   1.0000   1.0000   1.0000   1.0000
     0.0000   0.0000   0.0000   0.0000

          k = 0.2857 0.2857 0.4286 (  7374 PWs)   bands (ev):

   -17.0288 -16.9544 -16.8012 -16.7735  -7.6698  -7.6596  -7.4625  -7.3689
    -6.7147  -6.6451  -6.5133  -6.4382  -2.5496  -2.5282  -2.0824  -2.0553
     4.6351   5.2273   5.8758   6.0135

     occupation numbers 
     1.0000   1.0000   1.0000   1.0000   1.0000   1.0000   1.0000   1.0000
     1.0000   1.0000   1.0000   1.0000   1.0000   1.0000   1.0000   1.0000
     0.0000   0.0000   0.0000   0.0000

          k = 0.2857 0.4286 0.4286 (  7387 PWs)   bands (ev):

   -16.9780 -16.9441 -16.8248 -16.8080  -7.6846  -7.6782  -7.5296  -7.4900
    -6.6168  -6.5752  -6.4814  -6.4386  -2.4924  -2.4820  -2.0981  -2.0898
     4.9595   5.3895   5.4271   5.6633

     occupation numbers 
     1.0000   1.0000   1.0000   1.0000   1.0000   1.0000   1.0000   1.0000
     1.0000   1.0000   1.0000   1.0000   1.0000   1.0000   1.0000   1.0000
     0.0000   0.0000   0.0000   0.0000

          k = 0.4286 0.4286 0.4286 (  7409 PWs)   bands (ev):

   -16.9359 -16.9164 -16.8554 -16.8423  -7.7058  -7.7010  -7.6250  -7.6053
    -6.5178  -6.4840  -6.4533  -6.4194  -2.3854  -2.3794  -2.1591  -2.1579
     5.0915   5.3266   5.3398   5.3424

     occupation numbers 
     1.0000   1.0000   1.0000   1.0000   1.0000   1.0000   1.0000   1.0000
     1.0000   1.0000   1.0000   1.0000   1.0000   1.0000   1.0000   1.0000
     0.0000   0.0000   0.0000   0.0000

          k = 0.0000 0.2857 0.1429 (  7377 PWs)   bands (ev):

   -17.2328 -16.8954 -16.7385 -16.6929  -7.6209  -7.5928  -7.4098  -6.9597
    -6.8485  -6.7605  -6.6896  -6.4906  -2.5804  -2.5526  -2.1585  -1.9265
     3.3337   5.3723   6.2971   6.4231

     occupation numbers 
     1.0000   1.0000   1.0000   1.0000   1.0000   1.0000   1.0000   1.0000
     1.0000   1.0000   1.0000   1.0000   1.0000   1.0000   1.0000   1.0000
     0.0000   0.0000   0.0000   0.0000

          k = 0.0000 0.4286 0.1429 (  7375 PWs)   bands (ev):

   -17.1281 -17.0079 -16.7222 -16.7047  -7.6040  -7.5861  -7.2697  -7.1052
    -6.8628  -6.8037  -6.6244  -6.5412  -2.6223  -2.6077  -2.0825  -2.0034
     4.0414   4.7882   6.7263   6.7588

     occupation numbers 
     1.0000   1.0000   1.0000   1.0000   1.0000   1.0000   1.0000   1.0000
     1.0000   1.0000   1.0000   1.0000   1.0000   1.0000   1.0000   1.0000
     0.0000   0.0000   0.0000   0.0000

          k = 0.0000 0.4286 0.2857 (  7405 PWs)   bands (ev):

   -17.0818 -16.9857 -16.7613 -16.7348  -7.6112  -7.5893  -7.3145  -7.1803
    -6.8469  -6.7768  -6.5966  -6.5190  -2.6217  -2.6050  -2.0682  -2.0159
     4.3773   5.0556   6.3054   6.7032

     occupation numbers 
     1.0000   1.0000   1.0000   1.0000   1.0000   1.0000   1.0000   1.0000
     1.0000   1.0000   1.0000   1.0000   1.0000   1.0000   1.0000   1.0000
     0.0000   0.0000   0.0000   0.0000

          k =-0.1429 0.4286 0.2857 (  7389 PWs)   bands (ev):

   -17.0676 -16.9765 -16.7723 -16.7455  -7.6348  -7.6143  -7.3623  -7.2378
    -6.8090  -6.7400  -6.5628  -6.4848  -2.6023  -2.5825  -2.0708  -2.0260
     4.4414   5.1015   6.1855   6.4882

     occupation numbers 
     1.0000   1.0000   1.0000   1.0000   1.0000   1.0000   1.0000   1.0000
     1.0000   1.0000   1.0000   1.0000   1.0000   1.0000   1.0000   1.0000
     0.0000   0.0000   0.0000   0.0000

     the Fermi energy is     0.0094 ev

!    total energy              =     -96.23525224 Ry
     estimated scf accuracy    <          1.1E-09 Ry
     smearing contrib. (-TS)   =       0.00000000 Ry
     internal energy E=F+TS    =     -96.23525224 Ry

     The total energy is F=E-TS. E is the sum of the following terms:
     one-electron contribution =     -62.44533628 Ry
     hartree contribution      =      40.47056679 Ry
     xc contribution           =     -31.66474589 Ry
     ewald contribution        =     -42.59573687 Ry

     convergence has been achieved in  11 iterations

     Forces acting on atoms (cartesian axes, Ry/au):

     atom    1 type  2   force =    -0.00000929   -0.00000929   -0.00000929
     atom    2 type  2   force =     0.00000929    0.00000929   -0.00000929
     atom    3 type  2   force =     0.00000929   -0.00000929    0.00000929
     atom    4 type  2   force =    -0.00000929    0.00000929    0.00000929
     atom    5 type  1   force =     0.00000321   -0.00000014   -0.00000353
     atom    6 type  1   force =    -0.00000321    0.00000014   -0.00000353
     atom    7 type  1   force =    -0.00000321   -0.00000014    0.00000353
     atom    8 type  1   force =     0.00000321    0.00000014    0.00000353
     atom    9 type  1   force =    -0.00000353    0.00000321   -0.00000014
     atom   10 type  1   force =    -0.00000353   -0.00000321    0.00000014
     atom   11 type  1   force =     0.00000353   -0.00000321   -0.00000014
     atom   12 type  1   force =     0.00000353    0.00000321    0.00000014
     atom   13 type  1   force =    -0.00000014   -0.00000353    0.00000321
     atom   14 type  1   force =     0.00000014   -0.00000353   -0.00000321
     atom   15 type  1   force =    -0.00000014    0.00000353   -0.00000321
     atom   16 type  1   force =     0.00000014    0.00000353    0.00000321
     The non-local contrib.  to forces
     atom    1 type  2   force =     0.70154763    0.70154763    0.70154763
     atom    2 type  2   force =    -0.70154763   -0.70154763    0.70154763
     atom    3 type  2   force =    -0.70154763    0.70154763   -0.70154763
     atom    4 type  2   force =     0.70154763   -0.70154763   -0.70154763
     atom    5 type  1   force =    -0.07201058   -0.03373155    0.04924072
     atom    6 type  1   force =     0.07201058    0.03373155    0.04924072
     atom    7 type  1   force =     0.07201058   -0.03373155   -0.04924072
     atom    8 type  1   force =    -0.07201058    0.03373155   -0.04924072
     atom    9 type  1   force =     0.04924072   -0.07201058   -0.03373155
     atom   10 type  1   force =     0.04924072    0.07201058    0.03373155
     atom   11 type  1   force =    -0.04924072    0.07201058   -0.03373155
     atom   12 type  1   force =    -0.04924072   -0.07201058    0.03373155
     atom   13 type  1   force =    -0.03373155    0.04924072   -0.07201058
     atom   14 type  1   force =     0.03373155    0.04924072    0.07201058
     atom   15 type  1   force =    -0.03373155   -0.04924072    0.07201058
     atom   16 type  1   force =     0.03373155   -0.04924072   -0.07201058
     The ionic contribution  to forces
     atom    1 type  2   force =    -1.12571322   -1.12571322   -1.12571322
     atom    2 type  2   force =     1.12571322    1.12571322   -1.12571322
     atom    3 type  2   force =     1.12571322   -1.12571322    1.12571322
     atom    4 type  2   force =    -1.12571322    1.12571322    1.12571322
     atom    5 type  1   force =     1.86142870    0.96859605   -1.17362020
     atom    6 type  1   force =    -1.86142870   -0.96859605   -1.17362020
     atom    7 type  1   force =    -1.86142870    0.96859605    1.17362020
     atom    8 type  1   force =     1.86142870   -0.96859605    1.17362020
     atom    9 type  1   force =    -1.17362020    1.86142870    0.96859605
     atom   10 type  1   force =    -1.17362020   -1.86142870   -0.96859605
     atom   11 type  1   force =     1.17362020   -1.86142870    0.96859605
     atom   12 type  1   force =     1.17362020    1.86142870   -0.96859605
     atom   13 type  1   force =     0.96859605   -1.17362020    1.86142870
     atom   14 type  1   force =    -0.96859605   -1.17362020   -1.86142870
     atom   15 type  1   force =     0.96859605    1.17362020   -1.86142870
     atom   16 type  1   force =    -0.96859605    1.17362020    1.86142870
     The local contribution  to forces
     atom    1 type  2   force =     0.43392159    0.43392159    0.43392159
     atom    2 type  2   force =    -0.43392159   -0.43392159    0.43392159
     atom    3 type  2   force =    -0.43392159    0.43392159   -0.43392159
     atom    4 type  2   force =     0.43392159   -0.43392159   -0.43392159
     atom    5 type  1   force =    -1.78941422   -0.93486463    1.12437458
     atom    6 type  1   force =     1.78941422    0.93486463    1.12437458
     atom    7 type  1   force =     1.78941422   -0.93486463   -1.12437458
     atom    8 type  1   force =    -1.78941422    0.93486463   -1.12437458
     atom    9 type  1   force =     1.12437458   -1.78941422   -0.93486463
     atom   10 type  1   force =     1.12437458    1.78941422    0.93486463
     atom   11 type  1   force =    -1.12437458    1.78941422   -0.93486463
     atom   12 type  1   force =    -1.12437458   -1.78941422    0.93486463
     atom   13 type  1   force =    -0.93486463    1.12437458   -1.78941422
     atom   14 type  1   force =     0.93486463    1.12437458    1.78941422
     atom   15 type  1   force =    -0.93486463   -1.12437458    1.78941422
     atom   16 type  1   force =     0.93486463   -1.12437458   -1.78941422
     The core correction contribution to forces
     atom    1 type  2   force =    -0.00977434   -0.00977434   -0.00977434
     atom    2 type  2   force =     0.00977434    0.00977434   -0.00977434
     atom    3 type  2   force =     0.00977434   -0.00977434    0.00977434
     atom    4 type  2   force =    -0.00977434    0.00977434    0.00977434
     atom    5 type  1   force =     0.00000000    0.00000000    0.00000000
     atom    6 type  1   force =     0.00000000    0.00000000    0.00000000
     atom    7 type  1   force =     0.00000000    0.00000000    0.00000000
     atom    8 type  1   force =     0.00000000    0.00000000    0.00000000
     atom    9 type  1   force =     0.00000000    0.00000000    0.00000000
     atom   10 type  1   force =     0.00000000    0.00000000    0.00000000
     atom   11 type  1   force =     0.00000000    0.00000000    0.00000000
     atom   12 type  1   force =     0.00000000    0.00000000    0.00000000
     atom   13 type  1   force =     0.00000000    0.00000000    0.00000000
     atom   14 type  1   force =     0.00000000    0.00000000    0.00000000
     atom   15 type  1   force =     0.00000000    0.00000000    0.00000000
     atom   16 type  1   force =     0.00000000    0.00000000    0.00000000
     The Hubbard contrib.    to forces
     atom    1 type  2   force =     0.00000000    0.00000000    0.00000000
     atom    2 type  2   force =     0.00000000    0.00000000    0.00000000
     atom    3 type  2   force =     0.00000000    0.00000000    0.00000000
     atom    4 type  2   force =     0.00000000    0.00000000    0.00000000
     atom    5 type  1   force =     0.00000000    0.00000000    0.00000000
     atom    6 type  1   force =     0.00000000    0.00000000    0.00000000
     atom    7 type  1   force =     0.00000000    0.00000000    0.00000000
     atom    8 type  1   force =     0.00000000    0.00000000    0.00000000
     atom    9 type  1   force =     0.00000000    0.00000000    0.00000000
     atom   10 type  1   force =     0.00000000    0.00000000    0.00000000
     atom   11 type  1   force =     0.00000000    0.00000000    0.00000000
     atom   12 type  1   force =     0.00000000    0.00000000    0.00000000
     atom   13 type  1   force =     0.00000000    0.00000000    0.00000000
     atom   14 type  1   force =     0.00000000    0.00000000    0.00000000
     atom   15 type  1   force =     0.00000000    0.00000000    0.00000000
     atom   16 type  1   force =     0.00000000    0.00000000    0.00000000
     The SCF correction term to forces
     atom    1 type  2   force =     0.00000904    0.00000904    0.00000904
     atom    2 type  2   force =    -0.00000904   -0.00000904    0.00000904
     atom    3 type  2   force =    -0.00000904    0.00000904   -0.00000904
     atom    4 type  2   force =     0.00000904   -0.00000904   -0.00000904
     atom    5 type  1   force =    -0.00000069   -0.00000002    0.00000137
     atom    6 type  1   force =     0.00000069    0.00000002    0.00000137
     atom    7 type  1   force =     0.00000069   -0.00000002   -0.00000137
     atom    8 type  1   force =    -0.00000069    0.00000002   -0.00000137
     atom    9 type  1   force =     0.00000137   -0.00000069   -0.00000002
     atom   10 type  1   force =     0.00000137    0.00000069    0.00000002
     atom   11 type  1   force =    -0.00000137    0.00000069   -0.00000002
     atom   12 type  1   force =    -0.00000137   -0.00000069    0.00000002
     atom   13 type  1   force =    -0.00000002    0.00000137   -0.00000069
     atom   14 type  1   force =     0.00000002    0.00000137    0.00000069
     atom   15 type  1   force =    -0.00000002   -0.00000137    0.00000069
     atom   16 type  1   force =     0.00000002   -0.00000137   -0.00000069

     Total force =     0.000036     Total SCF correction =     0.000032
     SCF correction compared to forces is large: reduce conv_thr to get better values


     Computing stress (Cartesian axis) and pressure

          total   stress  (Ry/bohr**3)                   (kbar)     P=       -0.33
  -0.00000223   0.00000000   0.00000000           -0.33        0.00        0.00
   0.00000000  -0.00000223   0.00000000            0.00       -0.33        0.00
   0.00000000   0.00000000  -0.00000223            0.00        0.00       -0.33

     kinetic stress (kbar)   6350.70      0.00      0.00
                                0.00   6350.70      0.00
                                0.00      0.00   6350.70

     local   stress (kbar)  -4698.99     -0.00      0.00
                               -0.00  -4698.99      0.00
                                0.00      0.00  -4698.99

     nonloc. stress (kbar)    -26.53      0.00      0.00
                                0.00    -26.53      0.00
                                0.00      0.00    -26.53

     hartree stress (kbar)   2109.61     -0.00     -0.00
                               -0.00   2109.61      0.00
                               -0.00      0.00   2109.61

     exc-cor stress (kbar)  -1086.22      0.00      0.00
                                0.00  -1086.22     -0.00
                                0.00     -0.00  -1086.22

     corecor stress (kbar)   -428.51     -0.00     -0.00
                               -0.00   -428.51     -0.00
                               -0.00     -0.00   -428.51

     ewald   stress (kbar)  -2220.39     -0.00      0.00
                               -0.00  -2220.39     -0.00
                                0.00     -0.00  -2220.39

     hubbard stress (kbar)      0.00      0.00      0.00
                                0.00      0.00      0.00
                                0.00      0.00      0.00

     DFT-D   stress (kbar)      0.00      0.00      0.00
                                0.00      0.00      0.00
                                0.00      0.00      0.00

     XDM     stress (kbar)      0.00      0.00      0.00
                                0.00      0.00      0.00
                                0.00      0.00      0.00

     dft-nl  stress (kbar)      0.00      0.00      0.00
                                0.00      0.00      0.00
                                0.00      0.00      0.00

     TS-vdW  stress (kbar)      0.00      0.00      0.00
                                0.00      0.00      0.00
                                0.00      0.00      0.00

     MDB     stress (kbar)      0.00      0.00      0.00
                                0.00      0.00      0.00
                                0.00      0.00      0.00

     3D-RISM stress (kbar)      0.00      0.00      0.00
                                0.00      0.00      0.00
                                0.00      0.00      0.00


     Writing all to output data dir ./out/AC_Ph_1.save/

     init_run     :      2.39s CPU      2.43s WALL (       1 calls)
     electrons    :     34.87s CPU     35.30s WALL (       1 calls)
     forces       :      0.83s CPU      0.84s WALL (       1 calls)
     stress       :      1.14s CPU      1.14s WALL (       1 calls)

     Called by init_run:
     wfcinit      :      1.27s CPU      1.28s WALL (       1 calls)
     wfcinit:atom :      0.02s CPU      0.02s WALL (      24 calls)
     wfcinit:wfcr :      1.19s CPU      1.21s WALL (      24 calls)
     potinit      :      0.24s CPU      0.24s WALL (       1 calls)
     hinit0       :      0.49s CPU      0.50s WALL (       1 calls)

     Called by electrons:
     c_bands      :     29.15s CPU     29.46s WALL (      11 calls)
     sum_band     :      4.52s CPU      4.58s WALL (      11 calls)
     v_of_rho     :      0.62s CPU      0.64s WALL (      12 calls)
     v_h          :      0.04s CPU      0.04s WALL (      12 calls)
     v_xc         :      0.67s CPU      0.69s WALL (      14 calls)
     newd         :      0.53s CPU      0.54s WALL (      12 calls)
     mix_rho      :      0.08s CPU      0.09s WALL (      11 calls)

     Called by c_bands:
     init_us_2    :      0.32s CPU      0.32s WALL (     600 calls)
     init_us_2:cp :      0.32s CPU      0.32s WALL (     600 calls)
     cegterg      :     28.64s CPU     28.93s WALL (     264 calls)

     Called by sum_band:
     sum_band:wei :      0.00s CPU      0.00s WALL (      11 calls)
     sum_band:loo :      3.94s CPU      3.98s WALL (      11 calls)
     sum_band:buf :      0.03s CPU      0.03s WALL (     264 calls)
     sum_band:ini :      0.14s CPU      0.14s WALL (     264 calls)
     sum_band:cal :      1.28s CPU      1.30s WALL (     264 calls)
     sum_band:bec :      0.01s CPU      0.01s WALL (     264 calls)
     addusdens    :      0.49s CPU      0.51s WALL (      11 calls)
     addusd:skk   :      0.04s CPU      0.04s WALL (      22 calls)
     addusd:dgemm :      0.26s CPU      0.27s WALL (      22 calls)
     addusd:qvan2 :      0.14s CPU      0.14s WALL (      22 calls)

     Called by *egterg:
     cdiaghg      :      1.16s CPU      1.17s WALL (     996 calls)
     cegterg:over :      2.91s CPU      2.94s WALL (     732 calls)
     cegterg:upda :      0.94s CPU      0.94s WALL (     732 calls)
     cegterg:last :      2.17s CPU      2.18s WALL (     540 calls)
     h_psi        :     18.98s CPU     19.24s WALL (    1020 calls)
     s_psi        :      2.09s CPU      2.09s WALL (    1020 calls)
     g_psi        :      0.13s CPU      0.13s WALL (     732 calls)

     Called by h_psi:
     h_psi:calbec :      3.62s CPU      3.68s WALL (    1020 calls)
     vloc_psi     :     13.18s CPU     13.36s WALL (    1020 calls)
     add_vuspsi   :      2.09s CPU      2.10s WALL (    1020 calls)

     General routines
     calbec       :      5.48s CPU      5.57s WALL (    1404 calls)
     fft          :      0.69s CPU      0.73s WALL (     179 calls)
     ffts         :      0.12s CPU      0.12s WALL (      23 calls)
     fftw         :     13.89s CPU     14.06s WALL (   34604 calls)
     interpolate  :      0.14s CPU      0.15s WALL (      12 calls)

     Parallel routines

     PWSCF        :     39.63s CPU     40.29s WALL


   This run was terminated on:   5:43:13  14Dec2022            

=------------------------------------------------------------------------------=
   JOB DONE.
=------------------------------------------------------------------------------=
