
     Program BANDS v.7.1 starts on 14Dec2022 at  5:44:48 

     This program is part of the open-source Quantum ESPRESSO suite
     for quantum simulation of materials; please cite
         "P. Giannozzi et al., J. Phys.:Condens. Matter 21 395502 (2009);
         "P. Giannozzi et al., J. Phys.:Condens. Matter 29 465901 (2017);
         "P. Giannozzi et al., J. Chem. Phys. 152 154105 (2020);
          URL http://www.quantum-espresso.org", 
     in publications or presentations arising from this work. More details at
     http://www.quantum-espresso.org/quote

     Parallel version (MPI), running on    14 processors

     MPI processes distributed on     1 nodes
     R & G space division:  proc/nbgrp/npool/nimage =      14
     23536 MiB available memory on the printing compute node when the environment starts


     Reading xml data from directory:

     ./out/AC_Ph_1.save/

     IMPORTANT: XC functional enforced from input :
     Exchange-correlation= PBE
                           (   1   4   3   4   0   0   0)
     Any further DFT definition will be discarded
     Please, verify this is what you really want


     Parallelization info
     --------------------
     sticks:   dense  smooth     PW     G-vecs:    dense   smooth      PW
     Min         262     130     36                11930     4206     622
     Max         263     131     37                11933     4207     625
     Sum        3673    1829    509               167037    58893    8733

     Using Slab Decomposition


     Check: negative core charge=   -0.000001
     Reading collected, re-writing distributed wavefunctions
     high-symmetry point:  0.0000 0.5000 0.0000   x coordinate   0.0000
     high-symmetry point:  0.0000 0.0000 0.0000   x coordinate   0.5000
     high-symmetry point: -0.5000 0.0000-0.5000   x coordinate   1.2071
     high-symmetry point: -0.3750 0.2500-0.3750   x coordinate   1.5133
     high-symmetry point:  0.0000 0.0000 0.0000   x coordinate   2.0996

     Plottable bands (eV) written to file AC_bands.dat.gnu
     Bands written to file AC_bands.dat

 **************************************************************************

                    xk=(   0.00000,   0.50000,   0.00000  )

     zone border point and non-symmorphic group 
     symmetry decomposition not available

 **************************************************************************

 **************************************************************************

                    xk=(   0.00000,   0.47500,   0.00000  )

     point group C_2  (2)   
     there are  2 classes
     the character table:

       E     C2   
A      1.00  1.00
B      1.00 -1.00

     the symmetry operations in each class and the name of the first element:

     E        1
                                                                 
     C2       2
                                                                 

     Band symmetry, C_2  (2)    point group:

     e(  1 -  1) =    -17.10467  eV     1   --> A              
     e(  2 -  2) =    -17.05985  eV     1   --> B              
     e(  3 -  3) =    -16.70141  eV     1   --> A              
     e(  4 -  4) =    -16.69751  eV     1   --> B              
     e(  5 -  5) =     -7.58917  eV     1   --> B              
     e(  6 -  6) =     -7.58814  eV     1   --> A              
     e(  7 -  7) =     -7.19201  eV     1   --> B              
     e(  8 -  8) =     -7.13574  eV     1   --> A              
     e(  9 -  9) =     -6.84887  eV     1   --> B              
     e( 10 - 10) =     -6.83251  eV     1   --> A              
     e( 11 - 11) =     -6.61261  eV     1   --> A              
     e( 12 - 12) =     -6.58510  eV     1   --> B              
     e( 13 - 13) =     -2.62483  eV     1   --> B              
     e( 14 - 14) =     -2.62196  eV     1   --> A              
     e( 15 - 15) =     -2.05896  eV     1   --> B              
     e( 16 - 16) =     -2.02756  eV     1   --> A              
     e( 17 - 17) =      4.18200  eV     1   --> A              
     e( 18 - 18) =      4.45455  eV     1   --> B              
     e( 19 - 19) =      6.71500  eV     1   --> B              
     e( 20 - 20) =      6.78186  eV     1   --> A              

 **************************************************************************

 **************************************************************************

                    xk=(   0.00000,   0.45000,   0.00000  )

     Band symmetry, C_2  (2)    point group:

     e(  1 -  1) =    -17.12664  eV     1   --> A              
     e(  2 -  2) =    -17.03724  eV     1   --> B              
     e(  3 -  3) =    -16.70354  eV     1   --> A              
     e(  4 -  4) =    -16.69579  eV     1   --> B              
     e(  5 -  5) =     -7.59089  eV     1   --> B              
     e(  6 -  6) =     -7.58872  eV     1   --> A              
     e(  7 -  7) =     -7.22109  eV     1   --> B              
     e(  8 -  8) =     -7.10878  eV     1   --> A              
     e(  9 -  9) =     -6.85317  eV     1   --> B              
     e( 10 - 10) =     -6.82110  eV     1   --> A              
     e( 11 - 11) =     -6.62682  eV     1   --> A              
     e( 12 - 12) =     -6.57226  eV     1   --> B              
     e( 13 - 13) =     -2.62312  eV     1   --> B              
     e( 14 - 14) =     -2.61726  eV     1   --> A              
     e( 15 - 15) =     -2.07460  eV     1   --> B              
     e( 16 - 16) =     -2.01181  eV     1   --> A              
     e( 17 - 17) =      4.04381  eV     1   --> A              
     e( 18 - 18) =      4.58678  eV     1   --> B              
     e( 19 - 19) =      6.66321  eV     1   --> B              
     e( 20 - 20) =      6.78636  eV     1   --> A              

 **************************************************************************

 **************************************************************************

                    xk=(   0.00000,   0.42500,   0.00000  )

     Band symmetry, C_2  (2)    point group:

     e(  1 -  1) =    -17.14816  eV     1   --> A              
     e(  2 -  2) =    -17.01466  eV     1   --> B              
     e(  3 -  3) =    -16.70575  eV     1   --> A              
     e(  4 -  4) =    -16.69425  eV     1   --> B              
     e(  5 -  5) =     -7.59341  eV     1   --> B              
     e(  6 -  6) =     -7.58994  eV     1   --> A              
     e(  7 -  7) =     -7.25058  eV     1   --> B              
     e(  8 -  8) =     -7.08271  eV     1   --> A              
     e(  9 -  9) =     -6.85465  eV     1   --> B              
     e( 10 - 10) =     -6.80816  eV     1   --> A              
     e( 11 - 11) =     -6.64097  eV     1   --> A              
     e( 12 - 12) =     -6.56028  eV     1   --> B              
     e( 13 - 13) =     -2.61944  eV     1   --> B              
     e( 14 - 14) =     -2.61037  eV     1   --> A              
     e( 15 - 15) =     -2.09020  eV     1   --> B              
     e( 16 - 16) =     -1.99606  eV     1   --> A              
     e( 17 - 17) =      3.90573  eV     1   --> A              
     e( 18 - 18) =      4.71479  eV     1   --> B              
     e( 19 - 19) =      6.60518  eV     1   --> B              
     e( 20 - 20) =      6.76673  eV     1   --> A              

 **************************************************************************

 **************************************************************************

                    xk=(   0.00000,   0.40000,   0.00000  )

     Band symmetry, C_2  (2)    point group:

     e(  1 -  1) =    -17.16912  eV     1   --> A              
     e(  2 -  2) =    -16.99224  eV     1   --> B              
     e(  3 -  3) =    -16.70801  eV     1   --> A              
     e(  4 -  4) =    -16.69294  eV     1   --> B              
     e(  5 -  5) =     -7.59670  eV     1   --> B              
     e(  6 -  6) =     -7.59167  eV     1   --> A              
     e(  7 -  7) =     -7.28028  eV     1   --> B              
     e(  8 -  8) =     -7.05756  eV     1   --> A              
     e(  9 -  9) =     -6.85325  eV     1   --> B              
     e( 10 - 10) =     -6.79436  eV     1   --> A              
     e( 11 - 11) =     -6.65466  eV     1   --> A              
     e( 12 - 12) =     -6.54936  eV     1   --> B              
     e( 13 - 13) =     -2.61389  eV     1   --> B              
     e( 14 - 14) =     -2.60132  eV     1   --> A              
     e( 15 - 15) =     -2.10580  eV     1   --> B              
     e( 16 - 16) =     -1.98034  eV     1   --> A              
     e( 17 - 17) =      3.76872  eV     1   --> A              
     e( 18 - 18) =      4.83743  eV     1   --> B              
     e( 19 - 19) =      6.54402  eV     1   --> B              
     e( 20 - 20) =      6.72403  eV     1   --> A              

 **************************************************************************

 **************************************************************************

                    xk=(   0.00000,   0.37500,   0.00000  )

     Band symmetry, C_2  (2)    point group:

     e(  1 -  1) =    -17.18940  eV     1   --> A              
     e(  2 -  2) =    -16.97009  eV     1   --> B              
     e(  3 -  3) =    -16.71030  eV     1   --> A              
     e(  4 -  4) =    -16.69188  eV     1   --> B              
     e(  5 -  5) =     -7.60067  eV     1   --> B              
     e(  6 -  6) =     -7.59383  eV     1   --> A              
     e(  7 -  7) =     -7.30997  eV     1   --> B              
     e(  8 -  8) =     -7.03336  eV     1   --> A              
     e(  9 -  9) =     -6.84901  eV     1   --> B              
     e( 10 - 10) =     -6.78059  eV     1   --> A              
     e( 11 - 11) =     -6.66732  eV     1   --> A              
     e( 12 - 12) =     -6.53966  eV     1   --> B              
     e( 13 - 13) =     -2.60663  eV     1   --> B              
     e( 14 - 14) =     -2.59020  eV     1   --> A              
     e( 15 - 15) =     -2.12145  eV     1   --> B              
     e( 16 - 16) =     -1.96478  eV     1   --> A              
     e( 17 - 17) =      3.63373  eV     1   --> A              
     e( 18 - 18) =      4.95353  eV     1   --> B              
     e( 19 - 19) =      6.48199  eV     1   --> B              
     e( 20 - 20) =      6.66276  eV     1   --> A              

 **************************************************************************

 **************************************************************************

                    xk=(   0.00000,   0.35000,   0.00000  )

     Band symmetry, C_2  (2)    point group:

     e(  1 -  1) =    -17.20890  eV     1   --> A              
     e(  2 -  2) =    -16.94834  eV     1   --> B              
     e(  3 -  3) =    -16.71259  eV     1   --> A              
     e(  4 -  4) =    -16.69111  eV     1   --> B              
     e(  5 -  5) =     -7.60517  eV     1   --> B              
     e(  6 -  6) =     -7.59627  eV     1   --> A              
     e(  7 -  7) =     -7.33939  eV     1   --> B              
     e(  8 -  8) =     -7.01010  eV     1   --> A              
     e(  9 -  9) =     -6.84204  eV     1   --> B              
     e( 10 - 10) =     -6.76817  eV     1   --> A              
     e( 11 - 11) =     -6.67785  eV     1   --> A              
     e( 12 - 12) =     -6.53132  eV     1   --> B              
     e( 13 - 13) =     -2.59773  eV     1   --> B              
     e( 14 - 14) =     -2.57710  eV     1   --> A              
     e( 15 - 15) =     -2.13716  eV     1   --> B              
     e( 16 - 16) =     -1.94941  eV     1   --> A              
     e( 17 - 17) =      3.50170  eV     1   --> A              
     e( 18 - 18) =      5.06198  eV     1   --> B              
     e( 19 - 19) =      6.42067  eV     1   --> B              
     e( 20 - 20) =      6.58856  eV     1   --> A              

 **************************************************************************

 **************************************************************************

                    xk=(   0.00000,   0.32500,   0.00000  )

     Band symmetry, C_2  (2)    point group:

     e(  1 -  1) =    -17.22752  eV     1   --> A              
     e(  2 -  2) =    -16.92708  eV     1   --> B              
     e(  3 -  3) =    -16.71486  eV     1   --> A              
     e(  4 -  4) =    -16.69064  eV     1   --> B              
     e(  5 -  5) =     -7.61004  eV     1   --> B              
     e(  6 -  6) =     -7.59889  eV     1   --> A              
     e(  7 -  7) =     -7.36832  eV     1   --> B              
     e(  8 -  8) =     -6.98780  eV     1   --> A              
     e(  9 -  9) =     -6.83250  eV     1   --> B              
     e( 10 - 10) =     -6.75923  eV     1   --> A              
     e( 11 - 11) =     -6.68443  eV     1   --> A              
     e( 12 - 12) =     -6.52448  eV     1   --> B              
     e( 13 - 13) =     -2.58737  eV     1   --> B              
     e( 14 - 14) =     -2.56220  eV     1   --> A              
     e( 15 - 15) =     -2.15296  eV     1   --> B              
     e( 16 - 16) =     -1.93433  eV     1   --> A              
     e( 17 - 17) =      3.37351  eV     1   --> A              
     e( 18 - 18) =      5.16175  eV     1   --> B              
     e( 19 - 19) =      6.36115  eV     1   --> B              
     e( 20 - 20) =      6.50652  eV     1   --> A              

 **************************************************************************

 **************************************************************************

                    xk=(   0.00000,   0.30000,   0.00000  )

     Band symmetry, C_2  (2)    point group:

     e(  1 -  1) =    -17.24516  eV     1   --> A              
     e(  2 -  2) =    -16.90645  eV     1   --> B              
     e(  3 -  3) =    -16.71707  eV     1   --> A              
     e(  4 -  4) =    -16.69052  eV     1   --> B              
     e(  5 -  5) =     -7.61511  eV     1   --> B              
     e(  6 -  6) =     -7.60160  eV     1   --> A              
     e(  7 -  7) =     -7.39654  eV     1   --> B              
     e(  8 -  8) =     -6.96651  eV     1   --> A              
     e(  9 -  9) =     -6.82065  eV     1   --> B              
     e( 10 - 10) =     -6.75623  eV     1   --> A              
     e( 11 - 11) =     -6.68486  eV     1   --> A              
     e( 12 - 12) =     -6.51928  eV     1   --> B              
     e( 13 - 13) =     -2.57569  eV     1   --> B              
     e( 14 - 14) =     -2.54576  eV     1   --> A              
     e( 15 - 15) =     -2.16892  eV     1   --> B              
     e( 16 - 16) =     -1.91969  eV     1   --> A              
     e( 17 - 17) =      3.25007  eV     1   --> A              
     e( 18 - 18) =      5.25200  eV     1   --> B              
     e( 19 - 19) =      6.30408  eV     1   --> B              
     e( 20 - 20) =      6.42071  eV     1   --> A              

 **************************************************************************

 **************************************************************************

                    xk=(   0.00000,   0.27500,   0.00000  )

     Band symmetry, C_2  (2)    point group:

     e(  1 -  1) =    -17.26172  eV     1   --> A              
     e(  2 -  2) =    -16.88652  eV     1   --> B              
     e(  3 -  3) =    -16.71921  eV     1   --> A              
     e(  4 -  4) =    -16.69078  eV     1   --> B              
     e(  5 -  5) =     -7.62017  eV     1   --> B              
     e(  6 -  6) =     -7.60431  eV     1   --> A              
     e(  7 -  7) =     -7.42382  eV     1   --> B              
     e(  8 -  8) =     -6.94629  eV     1   --> A              
     e(  9 -  9) =     -6.80673  eV     1   --> B              
     e( 10 - 10) =     -6.75948  eV     1   --> A              
     e( 11 - 11) =     -6.67900  eV     1   --> A              
     e( 12 - 12) =     -6.51581  eV     1   --> B              
     e( 13 - 13) =     -2.56280  eV     1   --> B              
     e( 14 - 14) =     -2.52804  eV     1   --> A              
     e( 15 - 15) =     -2.18506  eV     1   --> B              
     e( 16 - 16) =     -1.90561  eV     1   --> A              
     e( 17 - 17) =      3.13224  eV     1   --> A              
     e( 18 - 18) =      5.33222  eV     1   --> B              
     e( 19 - 19) =      6.24978  eV     1   --> B              
     e( 20 - 20) =      6.33429  eV     1   --> A              

 **************************************************************************

 **************************************************************************

                    xk=(   0.00000,   0.25000,   0.00000  )

     Band symmetry, C_2  (2)    point group:

     e(  1 -  1) =    -17.27714  eV     1   --> A              
     e(  2 -  2) =    -16.86739  eV     1   --> B              
     e(  3 -  3) =    -16.72125  eV     1   --> A              
     e(  4 -  4) =    -16.69146  eV     1   --> B              
     e(  5 -  5) =     -7.62501  eV     1   --> B              
     e(  6 -  6) =     -7.60694  eV     1   --> A              
     e(  7 -  7) =     -7.44997  eV     1   --> B              
     e(  8 -  8) =     -6.92722  eV     1   --> A              
     e(  9 -  9) =     -6.79101  eV     1   --> B              
     e( 10 - 10) =     -6.76668  eV     1   --> A              
     e( 11 - 11) =     -6.66933  eV     1   --> A              
     e( 12 - 12) =     -6.51416  eV     1   --> B              
     e( 13 - 13) =     -2.54887  eV     1   --> B              
     e( 14 - 14) =     -2.50941  eV     1   --> A              
     e( 15 - 15) =     -2.20140  eV     1   --> B              
     e( 16 - 16) =     -1.89222  eV     1   --> A              
     e( 17 - 17) =      3.02090  eV     1   --> A              
     e( 18 - 18) =      5.40227  eV     1   --> B              
     e( 19 - 19) =      6.19823  eV     1   --> B              
     e( 20 - 20) =      6.24967  eV     1   --> A              

 **************************************************************************

 **************************************************************************

                    xk=(   0.00000,   0.22500,   0.00000  )

     Band symmetry, C_2  (2)    point group:

     e(  1 -  1) =    -17.29132  eV     1   --> A              
     e(  2 -  2) =    -16.84916  eV     1   --> B              
     e(  3 -  3) =    -16.72317  eV     1   --> A              
     e(  4 -  4) =    -16.69261  eV     1   --> B              
     e(  5 -  5) =     -7.62946  eV     1   --> B              
     e(  6 -  6) =     -7.60946  eV     1   --> A              
     e(  7 -  7) =     -7.47482  eV     1   --> B              
     e(  8 -  8) =     -6.90940  eV     1   --> A              
     e(  9 -  9) =     -6.77551  eV     1   --> A              
     e( 10 - 10) =     -6.77383  eV     1   --> B              
     e( 11 - 11) =     -6.65829  eV     1   --> A              
     e( 12 - 12) =     -6.51441  eV     1   --> B              
     e( 13 - 13) =     -2.53402  eV     1   --> B              
     e( 14 - 14) =     -2.49031  eV     1   --> A              
     e( 15 - 15) =     -2.21798  eV     1   --> B              
     e( 16 - 16) =     -1.87968  eV     1   --> A              
     e( 17 - 17) =      2.91688  eV     1   --> A              
     e( 18 - 18) =      5.46251  eV     1   --> B              
     e( 19 - 19) =      6.14919  eV     1   --> B              
     e( 20 - 20) =      6.16877  eV     1   --> A              

 **************************************************************************

 **************************************************************************

                    xk=(   0.00000,   0.20000,   0.00000  )

     Band symmetry, C_2  (2)    point group:

     e(  1 -  1) =    -17.30421  eV     1   --> A              
     e(  2 -  2) =    -16.83188  eV     1   --> B              
     e(  3 -  3) =    -16.72496  eV     1   --> A              
     e(  4 -  4) =    -16.69426  eV     1   --> B              
     e(  5 -  5) =     -7.63326  eV     1   --> B              
     e(  6 -  6) =     -7.61179  eV     1   --> A              
     e(  7 -  7) =     -7.49819  eV     1   --> B              
     e(  8 -  8) =     -6.89292  eV     1   --> A              
     e(  9 -  9) =     -6.78466  eV     1   --> A              
     e( 10 - 10) =     -6.75545  eV     1   --> B              
     e( 11 - 11) =     -6.64722  eV     1   --> A              
     e( 12 - 12) =     -6.51659  eV     1   --> B              
     e( 13 - 13) =     -2.51837  eV     1   --> B              
     e( 14 - 14) =     -2.47116  eV     1   --> A              
     e( 15 - 15) =     -2.23480  eV     1   --> B              
     e( 16 - 16) =     -1.86811  eV     1   --> A              
     e( 17 - 17) =      2.82103  eV     1   --> A              
     e( 18 - 18) =      5.51384  eV     1   --> B              
     e( 19 - 19) =      6.09309  eV     1   --> A              
     e( 20 - 20) =      6.10230  eV     1   --> B              

 **************************************************************************

 **************************************************************************

                    xk=(   0.00000,   0.17500,   0.00000  )

     Band symmetry, C_2  (2)    point group:

     e(  1 -  1) =    -17.31573  eV     1   --> A              
     e(  2 -  2) =    -16.81561  eV     1   --> B              
     e(  3 -  3) =    -16.72657  eV     1   --> A              
     e(  4 -  4) =    -16.69647  eV     1   --> B              
     e(  5 -  5) =     -7.63625  eV     1   --> B              
     e(  6 -  6) =     -7.61390  eV     1   --> A              
     e(  7 -  7) =     -7.51995  eV     1   --> B              
     e(  8 -  8) =     -6.87793  eV     1   --> A              
     e(  9 -  9) =     -6.79345  eV     1   --> A              
     e( 10 - 10) =     -6.73619  eV     1   --> B              
     e( 11 - 11) =     -6.63683  eV     1   --> A              
     e( 12 - 12) =     -6.52072  eV     1   --> B              
     e( 13 - 13) =     -2.50203  eV     1   --> B              
     e( 14 - 14) =     -2.45244  eV     1   --> A              
     e( 15 - 15) =     -2.25187  eV     1   --> B              
     e( 16 - 16) =     -1.85763  eV     1   --> A              
     e( 17 - 17) =      2.73417  eV     1   --> A              
     e( 18 - 18) =      5.55758  eV     1   --> B              
     e( 19 - 19) =      6.02387  eV     1   --> A              
     e( 20 - 20) =      6.05717  eV     1   --> B              

 **************************************************************************

 **************************************************************************

                    xk=(   0.00000,   0.15000,   0.00000  )

     Band symmetry, C_2  (2)    point group:

     e(  1 -  1) =    -17.32582  eV     1   --> A              
     e(  2 -  2) =    -16.80040  eV     1   --> B              
     e(  3 -  3) =    -16.72801  eV     1   --> A              
     e(  4 -  4) =    -16.69929  eV     1   --> B              
     e(  5 -  5) =     -7.63826  eV     1   --> B              
     e(  6 -  6) =     -7.61577  eV     1   --> A              
     e(  7 -  7) =     -7.54000  eV     1   --> B              
     e(  8 -  8) =     -6.86458  eV     1   --> A              
     e(  9 -  9) =     -6.80150  eV     1   --> A              
     e( 10 - 10) =     -6.71635  eV     1   --> B              
     e( 11 - 11) =     -6.62751  eV     1   --> A              
     e( 12 - 12) =     -6.52681  eV     1   --> B              
     e( 13 - 13) =     -2.48514  eV     1   --> B              
     e( 14 - 14) =     -2.43474  eV     1   --> A              
     e( 15 - 15) =     -2.26919  eV     1   --> B              
     e( 16 - 16) =     -1.84836  eV     1   --> A              
     e( 17 - 17) =      2.65705  eV     1   --> A              
     e( 18 - 18) =      5.59534  eV     1   --> B              
     e( 19 - 19) =      5.96208  eV     1   --> A              
     e( 20 - 20) =      6.01351  eV     1   --> B              

 **************************************************************************

 **************************************************************************

                    xk=(   0.00000,   0.12500,   0.00000  )

     Band symmetry, C_2  (2)    point group:

     e(  1 -  1) =    -17.33445  eV     1   --> A              
     e(  2 -  2) =    -16.78628  eV     1   --> B              
     e(  3 -  3) =    -16.72926  eV     1   --> A              
     e(  4 -  4) =    -16.70278  eV     1   --> B              
     e(  5 -  5) =     -7.63910  eV     1   --> B              
     e(  6 -  6) =     -7.61738  eV     1   --> A              
     e(  7 -  7) =     -7.55825  eV     1   --> B              
     e(  8 -  8) =     -6.85299  eV     1   --> A              
     e(  9 -  9) =     -6.80860  eV     1   --> A              
     e( 10 - 10) =     -6.69625  eV     1   --> B              
     e( 11 - 11) =     -6.61948  eV     1   --> A              
     e( 12 - 12) =     -6.53483  eV     1   --> B              
     e( 13 - 13) =     -2.46780  eV     1   --> B              
     e( 14 - 14) =     -2.41857  eV     1   --> A              
     e( 15 - 15) =     -2.28677  eV     1   --> B              
     e( 16 - 16) =     -1.84040  eV     1   --> A              
     e( 17 - 17) =      2.59039  eV     1   --> A              
     e( 18 - 18) =      5.62887  eV     1   --> B              
     e( 19 - 19) =      5.90854  eV     1   --> A              
     e( 20 - 20) =      5.97117  eV     1   --> B              

 **************************************************************************

 **************************************************************************

                    xk=(   0.00000,   0.10000,   0.00000  )

     Band symmetry, C_2  (2)    point group:

     e(  1 -  1) =    -17.34157  eV     1   --> A              
     e(  2 -  2) =    -16.77328  eV     1   --> B              
     e(  3 -  3) =    -16.73030  eV     1   --> A              
     e(  4 -  4) =    -16.70699  eV     1   --> B              
     e(  5 -  5) =     -7.63864  eV     1   --> B              
     e(  6 -  6) =     -7.61872  eV     1   --> A              
     e(  7 -  7) =     -7.57464  eV     1   --> B              
     e(  8 -  8) =     -6.84329  eV     1   --> A              
     e(  9 -  9) =     -6.81457  eV     1   --> A              
     e( 10 - 10) =     -6.67614  eV     1   --> B              
     e( 11 - 11) =     -6.61285  eV     1   --> A              
     e( 12 - 12) =     -6.54473  eV     1   --> B              
     e( 13 - 13) =     -2.45009  eV     1   --> B              
     e( 14 - 14) =     -2.40448  eV     1   --> A              
     e( 15 - 15) =     -2.30456  eV     1   --> B              
     e( 16 - 16) =     -1.83383  eV     1   --> A              
     e( 17 - 17) =      2.53487  eV     1   --> A              
     e( 18 - 18) =      5.65982  eV     1   --> B              
     e( 19 - 19) =      5.86389  eV     1   --> A              
     e( 20 - 20) =      5.93017  eV     1   --> B              

 **************************************************************************

 **************************************************************************

                    xk=(   0.00000,   0.07500,   0.00000  )

     Band symmetry, C_2  (2)    point group:

     e(  1 -  1) =    -17.34714  eV     1   --> A              
     e(  2 -  2) =    -16.76138  eV     1   --> B              
     e(  3 -  3) =    -16.73112  eV     1   --> A              
     e(  4 -  4) =    -16.71197  eV     1   --> B              
     e(  5 -  5) =     -7.63672  eV     1   --> B              
     e(  6 -  6) =     -7.61977  eV     1   --> A              
     e(  7 -  7) =     -7.58913  eV     1   --> B              
     e(  8 -  8) =     -6.83560  eV     1   --> A              
     e(  9 -  9) =     -6.81931  eV     1   --> A              
     e( 10 - 10) =     -6.65631  eV     1   --> B              
     e( 11 - 11) =     -6.60767  eV     1   --> A              
     e( 12 - 12) =     -6.55641  eV     1   --> B              
     e( 13 - 13) =     -2.43211  eV     1   --> B              
     e( 14 - 14) =     -2.39293  eV     1   --> A              
     e( 15 - 15) =     -2.32255  eV     1   --> B              
     e( 16 - 16) =     -1.82867  eV     1   --> A              
     e( 17 - 17) =      2.49105  eV     1   --> A              
     e( 18 - 18) =      5.68966  eV     1   --> B              
     e( 19 - 19) =      5.82865  eV     1   --> A              
     e( 20 - 20) =      5.89065  eV     1   --> B              

 **************************************************************************

 **************************************************************************

                    xk=(   0.00000,   0.05000,   0.00000  )

     Band symmetry, C_2  (2)    point group:

     e(  1 -  1) =    -17.35114  eV     1   --> A              
     e(  2 -  2) =    -16.75059  eV     1   --> B              
     e(  3 -  3) =    -16.73171  eV     1   --> A              
     e(  4 -  4) =    -16.71780  eV     1   --> B              
     e(  5 -  5) =     -7.63324  eV     1   --> B              
     e(  6 -  6) =     -7.62053  eV     1   --> A              
     e(  7 -  7) =     -7.60170  eV     1   --> B              
     e(  8 -  8) =     -6.83004  eV     1   --> A              
     e(  9 -  9) =     -6.82275  eV     1   --> A              
     e( 10 - 10) =     -6.63702  eV     1   --> B              
     e( 11 - 11) =     -6.60396  eV     1   --> A              
     e( 12 - 12) =     -6.56978  eV     1   --> B              
     e( 13 - 13) =     -2.41393  eV     1   --> B              
     e( 14 - 14) =     -2.38436  eV     1   --> A              
     e( 15 - 15) =     -2.34070  eV     1   --> B              
     e( 16 - 16) =     -1.82498  eV     1   --> A              
     e( 17 - 17) =      2.45940  eV     1   --> A              
     e( 18 - 18) =      5.71956  eV     1   --> B              
     e( 19 - 19) =      5.80320  eV     1   --> A              
     e( 20 - 20) =      5.85280  eV     1   --> B              

 **************************************************************************

 **************************************************************************

                    xk=(   0.00000,   0.02500,   0.00000  )

     Band symmetry, C_2  (2)    point group:

     e(  1 -  1) =    -17.35355  eV     1   --> A              
     e(  2 -  2) =    -16.74087  eV     1   --> B              
     e(  3 -  3) =    -16.73207  eV     1   --> A              
     e(  4 -  4) =    -16.72452  eV     1   --> B              
     e(  5 -  5) =     -7.62806  eV     1   --> B              
     e(  6 -  6) =     -7.62097  eV     1   --> A              
     e(  7 -  7) =     -7.61235  eV     1   --> B              
     e(  8 -  8) =     -6.82665  eV     1   --> A              
     e(  9 -  9) =     -6.82483  eV     1   --> A              
     e( 10 - 10) =     -6.61850  eV     1   --> B              
     e( 11 - 11) =     -6.60174  eV     1   --> A              
     e( 12 - 12) =     -6.58469  eV     1   --> B              
     e( 13 - 13) =     -2.39563  eV     1   --> B              
     e( 14 - 14) =     -2.37907  eV     1   --> A              
     e( 15 - 15) =     -2.35895  eV     1   --> B              
     e( 16 - 16) =     -1.82275  eV     1   --> A              
     e( 17 - 17) =      2.44026  eV     1   --> A              
     e( 18 - 18) =      5.75038  eV     1   --> B              
     e( 19 - 19) =      5.78782  eV     1   --> A              
     e( 20 - 20) =      5.81679  eV     1   --> B              

 **************************************************************************

 **************************************************************************

                    xk=(   0.00000,   0.00000,   0.00000  )

     point group T    (23)  
     there are  4 classes
     the character table:

       E     3C2   4C3   4C3' 
A      1.00  1.00  1.00  1.00
E      1.00  1.00 -0.50 -0.50
E*     1.00  1.00 -0.50 -0.50
T      3.00 -1.00  0.00  0.00
     imaginary part
A      0.00  0.00  0.00  0.00
E      0.00  0.00  0.87 -0.87
E*     0.00  0.00 -0.87  0.87
T      0.00  0.00  0.00  0.00

     the symmetry operations in each class and the name of the first element:

     E        1
                                                                 
     3C2      2    3    4
                                                                 
     4C3      9   12   10   11
                                                                 
     4C3'     5    7    8    6
                                                                 

     Band symmetry, T    (23)   point group:

     e(  1 -  1) =    -17.35434  eV     1   --> A              
     e(  2 -  4) =    -16.73218  eV     3   --> T              
     e(  5 -  7) =     -7.62108  eV     3   --> T              
     e(  8 -  9) =     -6.82548  eV     2   --> E              
     e(  8 -  9) =     -6.82548  eV     2   --> E*             
     e( 10 - 12) =     -6.60095  eV     3   --> T              
     e( 13 - 15) =     -2.37724  eV     3   --> T              
     e( 16 - 16) =     -1.82196  eV     1   --> A              
     e( 17 - 17) =      2.43386  eV     1   --> A              
     e( 18 - 20) =      5.78269  eV     3   --> T              

 **************************************************************************

 **************************************************************************

                    xk=(  -0.01667,   0.00000,  -0.01667  )

     point group C_1 (1)    
     there are  1 classes
     the character table:

       E    
A      1.00

     the symmetry operations in each class and the name of the first element:

     E        1
                                                                 

     Band symmetry, C_1 (1)     point group:

     e(  1 -  1) =    -17.35364  eV     1   --> A              
     e(  2 -  2) =    -16.74021  eV     1   --> A              
     e(  3 -  3) =    -16.73232  eV     1   --> A              
     e(  4 -  4) =    -16.72482  eV     1   --> A              
     e(  5 -  5) =     -7.62765  eV     1   --> A              
     e(  6 -  6) =     -7.62108  eV     1   --> A              
     e(  7 -  7) =     -7.61288  eV     1   --> A              
     e(  8 -  8) =     -6.82613  eV     1   --> A              
     e(  9 -  9) =     -6.82531  eV     1   --> A              
     e( 10 - 10) =     -6.61707  eV     1   --> A              
     e( 11 - 11) =     -6.60243  eV     1   --> A              
     e( 12 - 12) =     -6.58522  eV     1   --> A              
     e( 13 - 13) =     -2.39447  eV     1   --> A              
     e( 14 - 14) =     -2.37909  eV     1   --> A              
     e( 15 - 15) =     -2.35990  eV     1   --> A              
     e( 16 - 16) =     -1.82267  eV     1   --> A              
     e( 17 - 17) =      2.43955  eV     1   --> A              
     e( 18 - 18) =      5.75297  eV     1   --> A              
     e( 19 - 19) =      5.78571  eV     1   --> A              
     e( 20 - 20) =      5.81555  eV     1   --> A              

 **************************************************************************

 **************************************************************************

                    xk=(  -0.03333,   0.00000,  -0.03333  )

     Band symmetry, C_1 (1)     point group:

     e(  1 -  1) =    -17.35150  eV     1   --> A              
     e(  2 -  2) =    -16.74885  eV     1   --> A              
     e(  3 -  3) =    -16.73272  eV     1   --> A              
     e(  4 -  4) =    -16.71813  eV     1   --> A              
     e(  5 -  5) =     -7.63243  eV     1   --> A              
     e(  6 -  6) =     -7.62097  eV     1   --> A              
     e(  7 -  7) =     -7.60296  eV     1   --> A              
     e(  8 -  8) =     -6.82796  eV     1   --> A              
     e(  9 -  9) =     -6.82469  eV     1   --> A              
     e( 10 - 10) =     -6.63311  eV     1   --> A              
     e( 11 - 11) =     -6.60669  eV     1   --> A              
     e( 12 - 12) =     -6.57000  eV     1   --> A              
     e( 13 - 13) =     -2.41138  eV     1   --> A              
     e( 14 - 14) =     -2.38439  eV     1   --> A              
     e( 15 - 15) =     -2.34242  eV     1   --> A              
     e( 16 - 16) =     -1.82465  eV     1   --> A              
     e( 17 - 17) =      2.45655  eV     1   --> A              
     e( 18 - 18) =      5.72635  eV     1   --> A              
     e( 19 - 19) =      5.79465  eV     1   --> A              
     e( 20 - 20) =      5.85163  eV     1   --> A              

 **************************************************************************

 **************************************************************************

                    xk=(  -0.05000,   0.00000,  -0.05000  )

     Band symmetry, C_1 (1)     point group:

     e(  1 -  1) =    -17.34795  eV     1   --> A              
     e(  2 -  2) =    -16.75807  eV     1   --> A              
     e(  3 -  3) =    -16.73338  eV     1   --> A              
     e(  4 -  4) =    -16.71215  eV     1   --> A              
     e(  5 -  5) =     -7.63548  eV     1   --> A              
     e(  6 -  6) =     -7.62079  eV     1   --> A              
     e(  7 -  7) =     -7.59149  eV     1   --> A              
     e(  8 -  8) =     -6.83111  eV     1   --> A              
     e(  9 -  9) =     -6.82371  eV     1   --> A              
     e( 10 - 10) =     -6.64873  eV     1   --> A              
     e( 11 - 11) =     -6.61374  eV     1   --> A              
     e( 12 - 12) =     -6.55555  eV     1   --> A              
     e( 13 - 13) =     -2.42791  eV     1   --> A              
     e( 14 - 14) =     -2.39299  eV     1   --> A              
     e( 15 - 15) =     -2.32491  eV     1   --> A              
     e( 16 - 16) =     -1.82792  eV     1   --> A              
     e( 17 - 17) =      2.48466  eV     1   --> A              
     e( 18 - 18) =      5.70275  eV     1   --> A              
     e( 19 - 19) =      5.80909  eV     1   --> A              
     e( 20 - 20) =      5.89101  eV     1   --> A              

 **************************************************************************

 **************************************************************************

                    xk=(  -0.06667,   0.00000,  -0.06667  )

     Band symmetry, C_1 (1)     point group:

     e(  1 -  1) =    -17.34300  eV     1   --> A              
     e(  2 -  2) =    -16.76782  eV     1   --> A              
     e(  3 -  3) =    -16.73430  eV     1   --> A              
     e(  4 -  4) =    -16.70688  eV     1   --> A              
     e(  5 -  5) =     -7.63686  eV     1   --> A              
     e(  6 -  6) =     -7.62053  eV     1   --> A              
     e(  7 -  7) =     -7.57857  eV     1   --> A              
     e(  8 -  8) =     -6.83565  eV     1   --> A              
     e(  9 -  9) =     -6.82246  eV     1   --> A              
     e( 10 - 10) =     -6.66347  eV     1   --> A              
     e( 11 - 11) =     -6.62345  eV     1   --> A              
     e( 12 - 12) =     -6.54200  eV     1   --> A              
     e( 13 - 13) =     -2.44398  eV     1   --> A              
     e( 14 - 14) =     -2.40455  eV     1   --> A              
     e( 15 - 15) =     -2.30746  eV     1   --> A              
     e( 16 - 16) =     -1.83247  eV     1   --> A              
     e( 17 - 17) =      2.52355  eV     1   --> A              
     e( 18 - 18) =      5.68203  eV     1   --> A              
     e( 19 - 19) =      5.82834  eV     1   --> A              
     e( 20 - 20) =      5.93377  eV     1   --> A              

 **************************************************************************

 **************************************************************************

                    xk=(  -0.08333,   0.00000,  -0.08333  )

     Band symmetry, C_1 (1)     point group:

     e(  1 -  1) =    -17.33668  eV     1   --> A              
     e(  2 -  2) =    -16.77805  eV     1   --> A              
     e(  3 -  3) =    -16.73548  eV     1   --> A              
     e(  4 -  4) =    -16.70235  eV     1   --> A              
     e(  5 -  5) =     -7.63669  eV     1   --> A              
     e(  6 -  6) =     -7.62022  eV     1   --> A              
     e(  7 -  7) =     -7.56440  eV     1   --> A              
     e(  8 -  8) =     -6.84172  eV     1   --> A              
     e(  9 -  9) =     -6.82109  eV     1   --> A              
     e( 10 - 10) =     -6.67686  eV     1   --> A              
     e( 11 - 11) =     -6.63564  eV     1   --> A              
     e( 12 - 12) =     -6.52949  eV     1   --> A              
     e( 13 - 13) =     -2.45953  eV     1   --> A              
     e( 14 - 14) =     -2.41860  eV     1   --> A              
     e( 15 - 15) =     -2.29018  eV     1   --> A              
     e( 16 - 16) =     -1.83826  eV     1   --> A              
     e( 17 - 17) =      2.57276  eV     1   --> A              
     e( 18 - 18) =      5.66406  eV     1   --> A              
     e( 19 - 19) =      5.85142  eV     1   --> A              
     e( 20 - 20) =      5.98007  eV     1   --> A              

 **************************************************************************

 **************************************************************************

                    xk=(  -0.10000,   0.00000,  -0.10000  )

     Band symmetry, C_1 (1)     point group:

     e(  1 -  1) =    -17.32903  eV     1   --> A              
     e(  2 -  2) =    -16.78871  eV     1   --> A              
     e(  3 -  3) =    -16.73693  eV     1   --> A              
     e(  4 -  4) =    -16.69857  eV     1   --> A              
     e(  5 -  5) =     -7.63514  eV     1   --> A              
     e(  6 -  6) =     -7.61984  eV     1   --> A              
     e(  7 -  7) =     -7.54918  eV     1   --> A              
     e(  8 -  8) =     -6.84938  eV     1   --> A              
     e(  9 -  9) =     -6.81984  eV     1   --> A              
     e( 10 - 10) =     -6.68852  eV     1   --> A              
     e( 11 - 11) =     -6.64999  eV     1   --> A              
     e( 12 - 12) =     -6.51810  eV     1   --> A              
     e( 13 - 13) =     -2.47450  eV     1   --> A              
     e( 14 - 14) =     -2.43466  eV     1   --> A              
     e( 15 - 15) =     -2.27314  eV     1   --> A              
     e( 16 - 16) =     -1.84524  eV     1   --> A              
     e( 17 - 17) =      2.63178  eV     1   --> A              
     e( 18 - 18) =      5.64865  eV     1   --> A              
     e( 19 - 19) =      5.87707  eV     1   --> A              
     e( 20 - 20) =      6.03010  eV     1   --> A              

 **************************************************************************

 **************************************************************************

                    xk=(  -0.11667,   0.00000,  -0.11667  )

     Band symmetry, C_1 (1)     point group:

     e(  1 -  1) =    -17.32008  eV     1   --> A              
     e(  2 -  2) =    -16.79974  eV     1   --> A              
     e(  3 -  3) =    -16.73862  eV     1   --> A              
     e(  4 -  4) =    -16.69554  eV     1   --> A              
     e(  5 -  5) =     -7.63242  eV     1   --> A              
     e(  6 -  6) =     -7.61936  eV     1   --> A              
     e(  7 -  7) =     -7.53311  eV     1   --> A              
     e(  8 -  8) =     -6.85850  eV     1   --> A              
     e(  9 -  9) =     -6.81904  eV     1   --> A              
     e( 10 - 10) =     -6.69828  eV     1   --> A              
     e( 11 - 11) =     -6.66586  eV     1   --> A              
     e( 12 - 12) =     -6.50788  eV     1   --> A              
     e( 13 - 13) =     -2.48884  eV     1   --> A              
     e( 14 - 14) =     -2.45213  eV     1   --> A              
     e( 15 - 15) =     -2.25640  eV     1   --> A              
     e( 16 - 16) =     -1.85330  eV     1   --> A              
     e( 17 - 17) =      2.69999  eV     1   --> A              
     e( 18 - 18) =      5.63556  eV     1   --> A              
     e( 19 - 19) =      5.90382  eV     1   --> A              
     e( 20 - 20) =      6.08406  eV     1   --> A              

 **************************************************************************

 **************************************************************************

                    xk=(  -0.13333,   0.00000,  -0.13333  )

     Band symmetry, C_1 (1)     point group:

     e(  1 -  1) =    -17.30989  eV     1   --> A              
     e(  2 -  2) =    -16.81106  eV     1   --> A              
     e(  3 -  3) =    -16.74057  eV     1   --> A              
     e(  4 -  4) =    -16.69326  eV     1   --> A              
     e(  5 -  5) =     -7.62886  eV     1   --> A              
     e(  6 -  6) =     -7.61869  eV     1   --> A              
     e(  7 -  7) =     -7.51645  eV     1   --> A              
     e(  8 -  8) =     -6.86884  eV     1   --> A              
     e(  9 -  9) =     -6.81924  eV     1   --> A              
     e( 10 - 10) =     -6.70675  eV     1   --> A              
     e( 11 - 11) =     -6.68185  eV     1   --> A              
     e( 12 - 12) =     -6.49887  eV     1   --> A              
     e( 13 - 13) =     -2.50252  eV     1   --> A              
     e( 14 - 14) =     -2.47040  eV     1   --> A              
     e( 15 - 15) =     -2.24004  eV     1   --> A              
     e( 16 - 16) =     -1.86235  eV     1   --> A              
     e( 17 - 17) =      2.77675  eV     1   --> A              
     e( 18 - 18) =      5.62453  eV     1   --> A              
     e( 19 - 19) =      5.93005  eV     1   --> A              
     e( 20 - 20) =      6.14213  eV     1   --> A              

 **************************************************************************

 **************************************************************************

                    xk=(  -0.15000,   0.00000,  -0.15000  )

     Band symmetry, C_1 (1)     point group:

     e(  1 -  1) =    -17.29851  eV     1   --> A              
     e(  2 -  2) =    -16.82261  eV     1   --> A              
     e(  3 -  3) =    -16.74276  eV     1   --> A              
     e(  4 -  4) =    -16.69176  eV     1   --> A              
     e(  5 -  5) =     -7.62510  eV     1   --> A              
     e(  6 -  6) =     -7.61747  eV     1   --> A              
     e(  7 -  7) =     -7.49944  eV     1   --> A              
     e(  8 -  8) =     -6.87994  eV     1   --> A              
     e(  9 -  9) =     -6.82127  eV     1   --> A              
     e( 10 - 10) =     -6.71662  eV     1   --> A              
     e( 11 - 11) =     -6.69429  eV     1   --> A              
     e( 12 - 12) =     -6.49110  eV     1   --> A              
     e( 13 - 13) =     -2.51556  eV     1   --> A              
     e( 14 - 14) =     -2.48884  eV     1   --> A              
     e( 15 - 15) =     -2.22411  eV     1   --> A              
     e( 16 - 16) =     -1.87226  eV     1   --> A              
     e( 17 - 17) =      2.86137  eV     1   --> A              
     e( 18 - 18) =      5.61524  eV     1   --> A              
     e( 19 - 19) =      5.95411  eV     1   --> A              
     e( 20 - 20) =      6.20437  eV     1   --> A              

 **************************************************************************

 **************************************************************************

                    xk=(  -0.16667,   0.00000,  -0.16667  )

     Band symmetry, C_1 (1)     point group:

     e(  1 -  1) =    -17.28600  eV     1   --> A              
     e(  2 -  2) =    -16.83432  eV     1   --> A              
     e(  3 -  3) =    -16.74517  eV     1   --> A              
     e(  4 -  4) =    -16.69102  eV     1   --> A              
     e(  5 -  5) =     -7.62229  eV     1   --> A              
     e(  6 -  6) =     -7.61481  eV     1   --> A              
     e(  7 -  7) =     -7.48237  eV     1   --> A              
     e(  8 -  8) =     -6.89128  eV     1   --> A              
     e(  9 -  9) =     -6.82638  eV     1   --> A              
     e( 10 - 10) =     -6.73032  eV     1   --> A              
     e( 11 - 11) =     -6.69944  eV     1   --> A              
     e( 12 - 12) =     -6.48459  eV     1   --> A              
     e( 13 - 13) =     -2.52808  eV     1   --> A              
     e( 14 - 14) =     -2.50679  eV     1   --> A              
     e( 15 - 15) =     -2.20867  eV     1   --> A              
     e( 16 - 16) =     -1.88288  eV     1   --> A              
     e( 17 - 17) =      2.95319  eV     1   --> A              
     e( 18 - 18) =      5.60738  eV     1   --> A              
     e( 19 - 19) =      5.97443  eV     1   --> A              
     e( 20 - 20) =      6.27067  eV     1   --> A              

 **************************************************************************

 **************************************************************************

                    xk=(  -0.18333,   0.00000,  -0.18333  )

     Band symmetry, C_1 (1)     point group:

     e(  1 -  1) =    -17.27243  eV     1   --> A              
     e(  2 -  2) =    -16.84611  eV     1   --> A              
     e(  3 -  3) =    -16.74778  eV     1   --> A              
     e(  4 -  4) =    -16.69106  eV     1   --> A              
     e(  5 -  5) =     -7.62094  eV     1   --> A              
     e(  6 -  6) =     -7.61049  eV     1   --> A              
     e(  7 -  7) =     -7.46547  eV     1   --> A              
     e(  8 -  8) =     -6.90228  eV     1   --> A              
     e(  9 -  9) =     -6.83614  eV     1   --> A              
     e( 10 - 10) =     -6.74437  eV     1   --> A              
     e( 11 - 11) =     -6.69911  eV     1   --> A              
     e( 12 - 12) =     -6.47931  eV     1   --> A              
     e( 13 - 13) =     -2.54030  eV     1   --> A              
     e( 14 - 14) =     -2.52351  eV     1   --> A              
     e( 15 - 15) =     -2.19375  eV     1   --> A              
     e( 16 - 16) =     -1.89405  eV     1   --> A              
     e( 17 - 17) =      3.05150  eV     1   --> A              
     e( 18 - 18) =      5.60056  eV     1   --> A              
     e( 19 - 19) =      5.98962  eV     1   --> A              
     e( 20 - 20) =      6.34079  eV     1   --> A              

 **************************************************************************

 **************************************************************************

                    xk=(  -0.20000,   0.00000,  -0.20000  )

     Band symmetry, C_1 (1)     point group:

     e(  1 -  1) =    -17.25788  eV     1   --> A              
     e(  2 -  2) =    -16.85790  eV     1   --> A              
     e(  3 -  3) =    -16.75058  eV     1   --> A              
     e(  4 -  4) =    -16.69187  eV     1   --> A              
     e(  5 -  5) =     -7.62035  eV     1   --> A              
     e(  6 -  6) =     -7.60554  eV     1   --> A              
     e(  7 -  7) =     -7.44904  eV     1   --> A              
     e(  8 -  8) =     -6.91259  eV     1   --> A              
     e(  9 -  9) =     -6.85160  eV     1   --> A              
     e( 10 - 10) =     -6.75541  eV     1   --> A              
     e( 11 - 11) =     -6.69545  eV     1   --> A              
     e( 12 - 12) =     -6.47529  eV     1   --> A              
     e( 13 - 13) =     -2.55271  eV     1   --> A              
     e( 14 - 14) =     -2.53813  eV     1   --> A              
     e( 15 - 15) =     -2.17941  eV     1   --> A              
     e( 16 - 16) =     -1.90561  eV     1   --> A              
     e( 17 - 17) =      3.15566  eV     1   --> A              
     e( 18 - 18) =      5.59444  eV     1   --> A              
     e( 19 - 19) =      5.99854  eV     1   --> A              
     e( 20 - 20) =      6.41427  eV     1   --> A              

 **************************************************************************

 **************************************************************************

                    xk=(  -0.21667,   0.00000,  -0.21667  )

     Band symmetry, C_1 (1)     point group:

     e(  1 -  1) =    -17.24244  eV     1   --> A              
     e(  2 -  2) =    -16.86961  eV     1   --> A              
     e(  3 -  3) =    -16.75354  eV     1   --> A              
     e(  4 -  4) =    -16.69346  eV     1   --> A              
     e(  5 -  5) =     -7.62007  eV     1   --> A              
     e(  6 -  6) =     -7.60067  eV     1   --> A              
     e(  7 -  7) =     -7.43330  eV     1   --> A              
     e(  8 -  8) =     -6.92238  eV     1   --> A              
     e(  9 -  9) =     -6.87179  eV     1   --> A              
     e( 10 - 10) =     -6.76272  eV     1   --> A              
     e( 11 - 11) =     -6.68938  eV     1   --> A              
     e( 12 - 12) =     -6.47251  eV     1   --> A              
     e( 13 - 13) =     -2.56545  eV     1   --> A              
     e( 14 - 14) =     -2.55015  eV     1   --> A              
     e( 15 - 15) =     -2.16565  eV     1   --> A              
     e( 16 - 16) =     -1.91739  eV     1   --> A              
     e( 17 - 17) =      3.26503  eV     1   --> A              
     e( 18 - 18) =      5.58863  eV     1   --> A              
     e( 19 - 19) =      6.00034  eV     1   --> A              
     e( 20 - 20) =      6.49052  eV     1   --> A              

 **************************************************************************

 **************************************************************************

                    xk=(  -0.23333,   0.00000,  -0.23333  )

     Band symmetry, C_1 (1)     point group:

     e(  1 -  1) =    -17.22620  eV     1   --> A              
     e(  2 -  2) =    -16.88116  eV     1   --> A              
     e(  3 -  3) =    -16.75664  eV     1   --> A              
     e(  4 -  4) =    -16.69584  eV     1   --> A              
     e(  5 -  5) =     -7.61994  eV     1   --> A              
     e(  6 -  6) =     -7.59629  eV     1   --> A              
     e(  7 -  7) =     -7.41846  eV     1   --> A              
     e(  8 -  8) =     -6.93363  eV     1   --> A              
     e(  9 -  9) =     -6.89286  eV     1   --> A              
     e( 10 - 10) =     -6.76713  eV     1   --> A              
     e( 11 - 11) =     -6.68147  eV     1   --> A              
     e( 12 - 12) =     -6.47097  eV     1   --> A              
     e( 13 - 13) =     -2.57787  eV     1   --> A              
     e( 14 - 14) =     -2.55997  eV     1   --> A              
     e( 15 - 15) =     -2.15254  eV     1   --> A              
     e( 16 - 16) =     -1.92924  eV     1   --> A              
     e( 17 - 17) =      3.37900  eV     1   --> A              
     e( 18 - 18) =      5.58278  eV     1   --> A              
     e( 19 - 19) =      5.99451  eV     1   --> A              
     e( 20 - 20) =      6.56877  eV     1   --> A              

 **************************************************************************

 **************************************************************************

                    xk=(  -0.25000,   0.00000,  -0.25000  )

     Band symmetry, C_1 (1)     point group:

     e(  1 -  1) =    -17.20926  eV     1   --> A              
     e(  2 -  2) =    -16.89248  eV     1   --> A              
     e(  3 -  3) =    -16.75983  eV     1   --> A              
     e(  4 -  4) =    -16.69901  eV     1   --> A              
     e(  5 -  5) =     -7.61986  eV     1   --> A              
     e(  6 -  6) =     -7.59263  eV     1   --> A              
     e(  7 -  7) =     -7.40469  eV     1   --> A              
     e(  8 -  8) =     -6.95171  eV     1   --> A              
     e(  9 -  9) =     -6.90756  eV     1   --> A              
     e( 10 - 10) =     -6.76965  eV     1   --> A              
     e( 11 - 11) =     -6.67213  eV     1   --> A              
     e( 12 - 12) =     -6.47063  eV     1   --> A              
     e( 13 - 13) =     -2.58917  eV     1   --> A              
     e( 14 - 14) =     -2.56823  eV     1   --> A              
     e( 15 - 15) =     -2.14005  eV     1   --> A              
     e( 16 - 16) =     -1.94099  eV     1   --> A              
     e( 17 - 17) =      3.49703  eV     1   --> A              
     e( 18 - 18) =      5.57660  eV     1   --> A              
     e( 19 - 19) =      5.98092  eV     1   --> A              
     e( 20 - 20) =      6.64791  eV     1   --> A              

 **************************************************************************

 **************************************************************************

                    xk=(  -0.26667,   0.00000,  -0.26667  )

     Band symmetry, C_1 (1)     point group:

     e(  1 -  1) =    -17.19172  eV     1   --> A              
     e(  2 -  2) =    -16.90348  eV     1   --> A              
     e(  3 -  3) =    -16.76308  eV     1   --> A              
     e(  4 -  4) =    -16.70294  eV     1   --> A              
     e(  5 -  5) =     -7.61977  eV     1   --> A              
     e(  6 -  6) =     -7.58983  eV     1   --> A              
     e(  7 -  7) =     -7.39210  eV     1   --> A              
     e(  8 -  8) =     -6.97853  eV     1   --> A              
     e(  9 -  9) =     -6.91261  eV     1   --> A              
     e( 10 - 10) =     -6.77101  eV     1   --> A              
     e( 11 - 11) =     -6.66174  eV     1   --> A              
     e( 12 - 12) =     -6.47147  eV     1   --> A              
     e( 13 - 13) =     -2.59887  eV     1   --> A              
     e( 14 - 14) =     -2.57532  eV     1   --> A              
     e( 15 - 15) =     -2.12819  eV     1   --> A              
     e( 16 - 16) =     -1.95249  eV     1   --> A              
     e( 17 - 17) =      3.61860  eV     1   --> A              
     e( 18 - 18) =      5.56984  eV     1   --> A              
     e( 19 - 19) =      5.95979  eV     1   --> A              
     e( 20 - 20) =      6.72590  eV     1   --> A              

 **************************************************************************

 **************************************************************************

                    xk=(  -0.28333,   0.00000,  -0.28333  )

     Band symmetry, C_1 (1)     point group:

     e(  1 -  1) =    -17.17371  eV     1   --> A              
     e(  2 -  2) =    -16.91410  eV     1   --> A              
     e(  3 -  3) =    -16.76635  eV     1   --> A              
     e(  4 -  4) =    -16.70765  eV     1   --> A              
     e(  5 -  5) =     -7.61963  eV     1   --> A              
     e(  6 -  6) =     -7.58795  eV     1   --> A              
     e(  7 -  7) =     -7.38077  eV     1   --> A              
     e(  8 -  8) =     -7.00996  eV     1   --> A              
     e(  9 -  9) =     -6.91132  eV     1   --> A              
     e( 10 - 10) =     -6.77164  eV     1   --> A              
     e( 11 - 11) =     -6.65063  eV     1   --> A              
     e( 12 - 12) =     -6.47348  eV     1   --> A              
     e( 13 - 13) =     -2.60679  eV     1   --> A              
     e( 14 - 14) =     -2.58147  eV     1   --> A              
     e( 15 - 15) =     -2.11699  eV     1   --> A              
     e( 16 - 16) =     -1.96363  eV     1   --> A              
     e( 17 - 17) =      3.74323  eV     1   --> A              
     e( 18 - 18) =      5.56231  eV     1   --> A              
     e( 19 - 19) =      5.93173  eV     1   --> A              
     e( 20 - 20) =      6.79722  eV     1   --> A              

 **************************************************************************

 **************************************************************************

                    xk=(  -0.30000,   0.00000,  -0.30000  )

     Band symmetry, C_1 (1)     point group:

     e(  1 -  1) =    -17.15536  eV     1   --> A              
     e(  2 -  2) =    -16.92425  eV     1   --> A              
     e(  3 -  3) =    -16.76960  eV     1   --> A              
     e(  4 -  4) =    -16.71311  eV     1   --> A              
     e(  5 -  5) =     -7.61936  eV     1   --> A              
     e(  6 -  6) =     -7.58698  eV     1   --> A              
     e(  7 -  7) =     -7.37069  eV     1   --> A              
     e(  8 -  8) =     -7.04326  eV     1   --> A              
     e(  9 -  9) =     -6.90588  eV     1   --> A              
     e( 10 - 10) =     -6.77176  eV     1   --> A              
     e( 11 - 11) =     -6.63912  eV     1   --> A              
     e( 12 - 12) =     -6.47661  eV     1   --> A              
     e( 13 - 13) =     -2.61288  eV     1   --> A              
     e( 14 - 14) =     -2.58678  eV     1   --> A              
     e( 15 - 15) =     -2.10647  eV     1   --> A              
     e( 16 - 16) =     -1.97429  eV     1   --> A              
     e( 17 - 17) =      3.87048  eV     1   --> A              
     e( 18 - 18) =      5.55395  eV     1   --> A              
     e( 19 - 19) =      5.89766  eV     1   --> A              
     e( 20 - 20) =      6.83972  eV     1   --> A              

 **************************************************************************

 **************************************************************************

                    xk=(  -0.31667,   0.00000,  -0.31667  )

     Band symmetry, C_1 (1)     point group:

     e(  1 -  1) =    -17.13680  eV     1   --> A              
     e(  2 -  2) =    -16.93388  eV     1   --> A              
     e(  3 -  3) =    -16.77279  eV     1   --> A              
     e(  4 -  4) =    -16.71930  eV     1   --> A              
     e(  5 -  5) =     -7.61891  eV     1   --> A              
     e(  6 -  6) =     -7.58684  eV     1   --> A              
     e(  7 -  7) =     -7.36184  eV     1   --> A              
     e(  8 -  8) =     -7.07717  eV     1   --> A              
     e(  9 -  9) =     -6.89725  eV     1   --> A              
     e( 10 - 10) =     -6.77156  eV     1   --> A              
     e( 11 - 11) =     -6.62749  eV     1   --> A              
     e( 12 - 12) =     -6.48084  eV     1   --> A              
     e( 13 - 13) =     -2.61724  eV     1   --> A              
     e( 14 - 14) =     -2.59137  eV     1   --> A              
     e( 15 - 15) =     -2.09663  eV     1   --> A              
     e( 16 - 16) =     -1.98438  eV     1   --> A              
     e( 17 - 17) =      3.99995  eV     1   --> A              
     e( 18 - 18) =      5.54476  eV     1   --> A              
     e( 19 - 19) =      5.85877  eV     1   --> A              
     e( 20 - 20) =      6.80914  eV     1   --> A              

 **************************************************************************

 **************************************************************************

                    xk=(  -0.33333,   0.00000,  -0.33333  )

     Band symmetry, C_1 (1)     point group:

     e(  1 -  1) =    -17.11820  eV     1   --> A              
     e(  2 -  2) =    -16.94290  eV     1   --> A              
     e(  3 -  3) =    -16.77588  eV     1   --> A              
     e(  4 -  4) =    -16.72616  eV     1   --> A              
     e(  5 -  5) =     -7.61817  eV     1   --> A              
     e(  6 -  6) =     -7.58735  eV     1   --> A              
     e(  7 -  7) =     -7.35413  eV     1   --> A              
     e(  8 -  8) =     -7.11095  eV     1   --> A              
     e(  9 -  9) =     -6.88602  eV     1   --> A              
     e( 10 - 10) =     -6.77111  eV     1   --> A              
     e( 11 - 11) =     -6.61600  eV     1   --> A              
     e( 12 - 12) =     -6.48608  eV     1   --> A              
     e( 13 - 13) =     -2.61995  eV     1   --> A              
     e( 14 - 14) =     -2.59530  eV     1   --> A              
     e( 15 - 15) =     -2.08749  eV     1   --> A              
     e( 16 - 16) =     -1.99378  eV     1   --> A              
     e( 17 - 17) =      4.13129  eV     1   --> A              
     e( 18 - 18) =      5.53490  eV     1   --> A              
     e( 19 - 19) =      5.81644  eV     1   --> A              
     e( 20 - 20) =      6.72759  eV     1   --> A              

 **************************************************************************

 **************************************************************************

                    xk=(  -0.35000,   0.00000,  -0.35000  )

     Band symmetry, C_1 (1)     point group:

     e(  1 -  1) =    -17.09972  eV     1   --> A              
     e(  2 -  2) =    -16.95126  eV     1   --> A              
     e(  3 -  3) =    -16.77882  eV     1   --> A              
     e(  4 -  4) =    -16.73363  eV     1   --> A              
     e(  5 -  5) =     -7.61707  eV     1   --> A              
     e(  6 -  6) =     -7.58838  eV     1   --> A              
     e(  7 -  7) =     -7.34749  eV     1   --> A              
     e(  8 -  8) =     -7.14401  eV     1   --> A              
     e(  9 -  9) =     -6.87276  eV     1   --> A              
     e( 10 - 10) =     -6.77049  eV     1   --> A              
     e( 11 - 11) =     -6.60487  eV     1   --> A              
     e( 12 - 12) =     -6.49225  eV     1   --> A              
     e( 13 - 13) =     -2.62124  eV     1   --> A              
     e( 14 - 14) =     -2.59864  eV     1   --> A              
     e( 15 - 15) =     -2.07905  eV     1   --> A              
     e( 16 - 16) =     -2.00243  eV     1   --> A              
     e( 17 - 17) =      4.26417  eV     1   --> A              
     e( 18 - 18) =      5.52460  eV     1   --> A              
     e( 19 - 19) =      5.77214  eV     1   --> A              
     e( 20 - 20) =      6.62654  eV     1   --> A              

 **************************************************************************

 **************************************************************************

                    xk=(  -0.36667,   0.00000,  -0.36667  )

     Band symmetry, C_1 (1)     point group:

     e(  1 -  1) =    -17.08157  eV     1   --> A              
     e(  2 -  2) =    -16.95890  eV     1   --> A              
     e(  3 -  3) =    -16.78157  eV     1   --> A              
     e(  4 -  4) =    -16.74162  eV     1   --> A              
     e(  5 -  5) =     -7.61557  eV     1   --> A              
     e(  6 -  6) =     -7.58976  eV     1   --> A              
     e(  7 -  7) =     -7.34183  eV     1   --> A              
     e(  8 -  8) =     -7.17585  eV     1   --> A              
     e(  9 -  9) =     -6.85803  eV     1   --> A              
     e( 10 - 10) =     -6.76979  eV     1   --> A              
     e( 11 - 11) =     -6.59435  eV     1   --> A              
     e( 12 - 12) =     -6.49926  eV     1   --> A              
     e( 13 - 13) =     -2.62134  eV     1   --> A              
     e( 14 - 14) =     -2.60148  eV     1   --> A              
     e( 15 - 15) =     -2.07137  eV     1   --> A              
     e( 16 - 16) =     -2.01029  eV     1   --> A              
     e( 17 - 17) =      4.39830  eV     1   --> A              
     e( 18 - 18) =      5.51417  eV     1   --> A              
     e( 19 - 19) =      5.72738  eV     1   --> A              
     e( 20 - 20) =      6.51533  eV     1   --> A              

 **************************************************************************

 **************************************************************************

                    xk=(  -0.38333,   0.00000,  -0.38333  )

     Band symmetry, C_1 (1)     point group:

     e(  1 -  1) =    -17.06399  eV     1   --> A              
     e(  2 -  2) =    -16.96577  eV     1   --> A              
     e(  3 -  3) =    -16.78410  eV     1   --> A              
     e(  4 -  4) =    -16.74999  eV     1   --> A              
     e(  5 -  5) =     -7.61363  eV     1   --> A              
     e(  6 -  6) =     -7.59132  eV     1   --> A              
     e(  7 -  7) =     -7.33706  eV     1   --> A              
     e(  8 -  8) =     -7.20596  eV     1   --> A              
     e(  9 -  9) =     -6.84243  eV     1   --> A              
     e( 10 - 10) =     -6.76905  eV     1   --> A              
     e( 11 - 11) =     -6.58463  eV     1   --> A              
     e( 12 - 12) =     -6.50695  eV     1   --> A              
     e( 13 - 13) =     -2.62052  eV     1   --> A              
     e( 14 - 14) =     -2.60386  eV     1   --> A              
     e( 15 - 15) =     -2.06445  eV     1   --> A              
     e( 16 - 16) =     -2.01731  eV     1   --> A              
     e( 17 - 17) =      4.53340  eV     1   --> A              
     e( 18 - 18) =      5.50405  eV     1   --> A              
     e( 19 - 19) =      5.68358  eV     1   --> A              
     e( 20 - 20) =      6.39751  eV     1   --> A              

 **************************************************************************

 **************************************************************************

                    xk=(  -0.40000,   0.00000,  -0.40000  )

     Band symmetry, C_1 (1)     point group:

     e(  1 -  1) =    -17.04724  eV     1   --> A              
     e(  2 -  2) =    -16.97182  eV     1   --> A              
     e(  3 -  3) =    -16.78637  eV     1   --> A              
     e(  4 -  4) =    -16.75854  eV     1   --> A              
     e(  5 -  5) =     -7.61125  eV     1   --> A              
     e(  6 -  6) =     -7.59290  eV     1   --> A              
     e(  7 -  7) =     -7.33308  eV     1   --> A              
     e(  8 -  8) =     -7.23381  eV     1   --> A              
     e(  9 -  9) =     -6.82654  eV     1   --> A              
     e( 10 - 10) =     -6.76829  eV     1   --> A              
     e( 11 - 11) =     -6.57588  eV     1   --> A              
     e( 12 - 12) =     -6.51509  eV     1   --> A              
     e( 13 - 13) =     -2.61904  eV     1   --> A              
     e( 14 - 14) =     -2.60582  eV     1   --> A              
     e( 15 - 15) =     -2.05833  eV     1   --> A              
     e( 16 - 16) =     -2.02344  eV     1   --> A              
     e( 17 - 17) =      4.66924  eV     1   --> A              
     e( 18 - 18) =      5.49471  eV     1   --> A              
     e( 19 - 19) =      5.64206  eV     1   --> A              
     e( 20 - 20) =      6.27495  eV     1   --> A              

 **************************************************************************

 **************************************************************************

                    xk=(  -0.41667,   0.00000,  -0.41667  )

     Band symmetry, C_1 (1)     point group:

     e(  1 -  1) =    -17.03169  eV     1   --> A              
     e(  2 -  2) =    -16.97702  eV     1   --> A              
     e(  3 -  3) =    -16.78835  eV     1   --> A              
     e(  4 -  4) =    -16.76702  eV     1   --> A              
     e(  5 -  5) =     -7.60854  eV     1   --> A              
     e(  6 -  6) =     -7.59441  eV     1   --> A              
     e(  7 -  7) =     -7.32985  eV     1   --> A              
     e(  8 -  8) =     -7.25892  eV     1   --> A              
     e(  9 -  9) =     -6.81104  eV     1   --> A              
     e( 10 - 10) =     -6.76760  eV     1   --> A              
     e( 11 - 11) =     -6.56824  eV     1   --> A              
     e( 12 - 12) =     -6.52341  eV     1   --> A              
     e( 13 - 13) =     -2.61721  eV     1   --> A              
     e( 14 - 14) =     -2.60742  eV     1   --> A              
     e( 15 - 15) =     -2.05307  eV     1   --> A              
     e( 16 - 16) =     -2.02868  eV     1   --> A              
     e( 17 - 17) =      4.80557  eV     1   --> A              
     e( 18 - 18) =      5.48668  eV     1   --> A              
     e( 19 - 19) =      5.60396  eV     1   --> A              
     e( 20 - 20) =      6.14883  eV     1   --> A              

 **************************************************************************

 **************************************************************************

                    xk=(  -0.43333,   0.00000,  -0.43333  )

     Band symmetry, C_1 (1)     point group:

     e(  1 -  1) =    -17.01775  eV     1   --> A              
     e(  2 -  2) =    -16.98131  eV     1   --> A              
     e(  3 -  3) =    -16.79001  eV     1   --> A              
     e(  4 -  4) =    -16.77507  eV     1   --> A              
     e(  5 -  5) =     -7.60567  eV     1   --> A              
     e(  6 -  6) =     -7.59575  eV     1   --> A              
     e(  7 -  7) =     -7.32728  eV     1   --> A              
     e(  8 -  8) =     -7.28068  eV     1   --> A              
     e(  9 -  9) =     -6.79663  eV     1   --> A              
     e( 10 - 10) =     -6.76698  eV     1   --> A              
     e( 11 - 11) =     -6.56184  eV     1   --> A              
     e( 12 - 12) =     -6.53150  eV     1   --> A              
     e( 13 - 13) =     -2.61528  eV     1   --> A              
     e( 14 - 14) =     -2.60869  eV     1   --> A              
     e( 15 - 15) =     -2.04869  eV     1   --> A              
     e( 16 - 16) =     -2.03299  eV     1   --> A              
     e( 17 - 17) =      4.94218  eV     1   --> A              
     e( 18 - 18) =      5.48054  eV     1   --> A              
     e( 19 - 19) =      5.57018  eV     1   --> A              
     e( 20 - 20) =      6.01998  eV     1   --> A              

 **************************************************************************

 **************************************************************************

                    xk=(  -0.45000,   0.00000,  -0.45000  )

     Band symmetry, C_1 (1)     point group:

     e(  1 -  1) =    -17.00593  eV     1   --> A              
     e(  2 -  2) =    -16.98469  eV     1   --> A              
     e(  3 -  3) =    -16.79132  eV     1   --> A              
     e(  4 -  4) =    -16.78224  eV     1   --> A              
     e(  5 -  5) =     -7.60287  eV     1   --> A              
     e(  6 -  6) =     -7.59685  eV     1   --> A              
     e(  7 -  7) =     -7.32534  eV     1   --> A              
     e(  8 -  8) =     -7.29852  eV     1   --> A              
     e(  9 -  9) =     -6.78409  eV     1   --> A              
     e( 10 - 10) =     -6.76647  eV     1   --> A              
     e( 11 - 11) =     -6.55676  eV     1   --> A              
     e( 12 - 12) =     -6.53884  eV     1   --> A              
     e( 13 - 13) =     -2.61349  eV     1   --> A              
     e( 14 - 14) =     -2.60965  eV     1   --> A              
     e( 15 - 15) =     -2.04523  eV     1   --> A              
     e( 16 - 16) =     -2.03636  eV     1   --> A              
     e( 17 - 17) =      5.07888  eV     1   --> A              
     e( 18 - 18) =      5.47691  eV     1   --> A              
     e( 19 - 19) =      5.54140  eV     1   --> A              
     e( 20 - 20) =      5.88900  eV     1   --> A              

 **************************************************************************

 **************************************************************************

                    xk=(  -0.46667,   0.00000,  -0.46667  )

     Band symmetry, C_1 (1)     point group:

     e(  1 -  1) =    -16.99683  eV     1   --> A              
     e(  2 -  2) =    -16.98711  eV     1   --> A              
     e(  3 -  3) =    -16.79227  eV     1   --> A              
     e(  4 -  4) =    -16.78798  eV     1   --> A              
     e(  5 -  5) =     -7.60052  eV     1   --> A              
     e(  6 -  6) =     -7.59768  eV     1   --> A              
     e(  7 -  7) =     -7.32397  eV     1   --> A              
     e(  8 -  8) =     -7.31184  eV     1   --> A              
     e(  9 -  9) =     -6.77427  eV     1   --> A              
     e( 10 - 10) =     -6.76609  eV     1   --> A              
     e( 11 - 11) =     -6.55309  eV     1   --> A              
     e( 12 - 12) =     -6.54481  eV     1   --> A              
     e( 13 - 13) =     -2.61208  eV     1   --> A              
     e( 14 - 14) =     -2.61032  eV     1   --> A              
     e( 15 - 15) =     -2.04273  eV     1   --> A              
     e( 16 - 16) =     -2.03878  eV     1   --> A              
     e( 17 - 17) =      5.21545  eV     1   --> A              
     e( 18 - 18) =      5.47640  eV     1   --> A              
     e( 19 - 19) =      5.51801  eV     1   --> A              
     e( 20 - 20) =      5.75634  eV     1   --> A              

 **************************************************************************

 **************************************************************************

                    xk=(  -0.48333,   0.00000,  -0.48333  )

     Band symmetry, C_1 (1)     point group:

     e(  1 -  1) =    -16.99105  eV     1   --> A              
     e(  2 -  2) =    -16.98858  eV     1   --> A              
     e(  3 -  3) =    -16.79285  eV     1   --> A              
     e(  4 -  4) =    -16.79173  eV     1   --> A              
     e(  5 -  5) =     -7.59891  eV     1   --> A              
     e(  6 -  6) =     -7.59818  eV     1   --> A              
     e(  7 -  7) =     -7.32317  eV     1   --> A              
     e(  8 -  8) =     -7.32010  eV     1   --> A              
     e(  9 -  9) =     -6.76795  eV     1   --> A              
     e( 10 - 10) =     -6.76585  eV     1   --> A              
     e( 11 - 11) =     -6.55087  eV     1   --> A              
     e( 12 - 12) =     -6.54874  eV     1   --> A              
     e( 13 - 13) =     -2.61116  eV     1   --> A              
     e( 14 - 14) =     -2.61072  eV     1   --> A              
     e( 15 - 15) =     -2.04123  eV     1   --> A              
     e( 16 - 16) =     -2.04024  eV     1   --> A              
     e( 17 - 17) =      5.35170  eV     1   --> A              
     e( 18 - 18) =      5.47965  eV     1   --> A              
     e( 19 - 19) =      5.50011  eV     1   --> A              
     e( 20 - 20) =      5.62239  eV     1   --> A              

 **************************************************************************

 **************************************************************************

                    xk=(  -0.50000,   0.00000,  -0.50000  )

     zone border point and non-symmorphic group 
     symmetry decomposition not available

 **************************************************************************

 **************************************************************************

                    xk=(  -0.48750,   0.02500,  -0.48750  )

     point group C_1 (1)    
     there are  1 classes
     the character table:

       E    
A      1.00

     the symmetry operations in each class and the name of the first element:

     E        1
                                                                 

     Band symmetry, C_1 (1)     point group:

     e(  1 -  1) =    -16.98986  eV     1   --> A              
     e(  2 -  2) =    -16.98846  eV     1   --> A              
     e(  3 -  3) =    -16.79321  eV     1   --> A              
     e(  4 -  4) =    -16.79258  eV     1   --> A              
     e(  5 -  5) =     -7.59972  eV     1   --> A              
     e(  6 -  6) =     -7.59930  eV     1   --> A              
     e(  7 -  7) =     -7.32578  eV     1   --> A              
[...]
     e(  7 -  7) =     -7.48907  eV     1   --> A              
     e(  8 -  8) =     -6.88474  eV     1   --> A              
     e(  9 -  9) =     -6.81842  eV     1   --> A              
     e( 10 - 10) =     -6.75710  eV     1   --> A              
     e( 11 - 11) =     -6.68692  eV     1   --> A              
     e( 12 - 12) =     -6.47675  eV     1   --> A              
     e( 13 - 13) =     -2.52178  eV     1   --> A              
     e( 14 - 14) =     -2.50944  eV     1   --> A              
     e( 15 - 15) =     -2.20861  eV     1   --> A              
     e( 16 - 16) =     -1.88219  eV     1   --> A              
     e( 17 - 17) =      2.94527  eV     1   --> A              
     e( 18 - 18) =      5.63214  eV     1   --> A              
     e( 19 - 19) =      5.98266  eV     1   --> A              
     e( 20 - 20) =      6.24593  eV     1   --> A              

 **************************************************************************

 **************************************************************************

                    xk=(  -0.13750,   0.09167,  -0.13750  )

     Band symmetry, C_1 (1)     point group:

     e(  1 -  1) =    -17.29716  eV     1   --> A              
     e(  2 -  2) =    -16.81904  eV     1   --> A              
     e(  3 -  3) =    -16.74751  eV     1   --> A              
     e(  4 -  4) =    -16.69196  eV     1   --> A              
     e(  5 -  5) =     -7.62396  eV     1   --> A              
     e(  6 -  6) =     -7.61895  eV     1   --> A              
     e(  7 -  7) =     -7.50152  eV     1   --> A              
     e(  8 -  8) =     -6.87606  eV     1   --> A              
     e(  9 -  9) =     -6.81962  eV     1   --> A              
     e( 10 - 10) =     -6.73488  eV     1   --> A              
     e( 11 - 11) =     -6.68800  eV     1   --> A              
     e( 12 - 12) =     -6.48366  eV     1   --> A              
     e( 13 - 13) =     -2.51255  eV     1   --> A              
     e( 14 - 14) =     -2.49436  eV     1   --> A              
     e( 15 - 15) =     -2.22138  eV     1   --> A              
     e( 16 - 16) =     -1.87338  eV     1   --> A              
     e( 17 - 17) =      2.86991  eV     1   --> A              
     e( 18 - 18) =      5.63480  eV     1   --> A              
     e( 19 - 19) =      5.95890  eV     1   --> A              
     e( 20 - 20) =      6.19870  eV     1   --> A              

 **************************************************************************

 **************************************************************************

                    xk=(  -0.12500,   0.08333,  -0.12500  )

     Band symmetry, C_1 (1)     point group:

     e(  1 -  1) =    -17.30676  eV     1   --> A              
     e(  2 -  2) =    -16.81041  eV     1   --> A              
     e(  3 -  3) =    -16.74497  eV     1   --> A              
     e(  4 -  4) =    -16.69283  eV     1   --> A              
     e(  5 -  5) =     -7.62595  eV     1   --> A              
     e(  6 -  6) =     -7.62075  eV     1   --> A              
     e(  7 -  7) =     -7.51434  eV     1   --> A              
     e(  8 -  8) =     -6.86718  eV     1   --> A              
     e(  9 -  9) =     -6.82114  eV     1   --> A              
     e( 10 - 10) =     -6.71409  eV     1   --> A              
     e( 11 - 11) =     -6.68699  eV     1   --> A              
     e( 12 - 12) =     -6.49118  eV     1   --> A              
     e( 13 - 13) =     -2.50285  eV     1   --> A              
     e( 14 - 14) =     -2.47871  eV     1   --> A              
     e( 15 - 15) =     -2.23453  eV     1   --> A              
     e( 16 - 16) =     -1.86505  eV     1   --> A              
     e( 17 - 17) =      2.79918  eV     1   --> A              
     e( 18 - 18) =      5.63867  eV     1   --> A              
     e( 19 - 19) =      5.93446  eV     1   --> A              
     e( 20 - 20) =      6.15235  eV     1   --> A              

 **************************************************************************

 **************************************************************************

                    xk=(  -0.11250,   0.07500,  -0.11250  )

     Band symmetry, C_1 (1)     point group:

     e(  1 -  1) =    -17.31557  eV     1   --> A              
     e(  2 -  2) =    -16.80181  eV     1   --> A              
     e(  3 -  3) =    -16.74264  eV     1   --> A              
     e(  4 -  4) =    -16.69430  eV     1   --> A              
     e(  5 -  5) =     -7.62917  eV     1   --> A              
     e(  6 -  6) =     -7.62104  eV     1   --> A              
     e(  7 -  7) =     -7.52732  eV     1   --> A              
     e(  8 -  8) =     -6.85857  eV     1   --> A              
     e(  9 -  9) =     -6.82250  eV     1   --> A              
     e( 10 - 10) =     -6.69717  eV     1   --> A              
     e( 11 - 11) =     -6.68192  eV     1   --> A              
     e( 12 - 12) =     -6.49937  eV     1   --> A              
     e( 13 - 13) =     -2.49257  eV     1   --> A              
     e( 14 - 14) =     -2.46302  eV     1   --> A              
     e( 15 - 15) =     -2.24804  eV     1   --> A              
     e( 16 - 16) =     -1.85729  eV     1   --> A              
     e( 17 - 17) =      2.73352  eV     1   --> A              
     e( 18 - 18) =      5.64398  eV     1   --> A              
     e( 19 - 19) =      5.91012  eV     1   --> A              
     e( 20 - 20) =      6.10714  eV     1   --> A              

 **************************************************************************

 **************************************************************************

                    xk=(  -0.10000,   0.06667,  -0.10000  )

     Band symmetry, C_1 (1)     point group:

     e(  1 -  1) =    -17.32354  eV     1   --> A              
     e(  2 -  2) =    -16.79327  eV     1   --> A              
     e(  3 -  3) =    -16.74051  eV     1   --> A              
     e(  4 -  4) =    -16.69635  eV     1   --> A              
     e(  5 -  5) =     -7.63218  eV     1   --> A              
     e(  6 -  6) =     -7.62102  eV     1   --> A              
     e(  7 -  7) =     -7.54024  eV     1   --> A              
     e(  8 -  8) =     -6.85067  eV     1   --> A              
     e(  9 -  9) =     -6.82358  eV     1   --> A              
     e( 10 - 10) =     -6.68746  eV     1   --> A              
     e( 11 - 11) =     -6.66958  eV     1   --> A              
     e( 12 - 12) =     -6.50821  eV     1   --> A              
     e( 13 - 13) =     -2.48167  eV     1   --> A              
     e( 14 - 14) =     -2.44768  eV     1   --> A              
     e( 15 - 15) =     -2.26184  eV     1   --> A              
     e( 16 - 16) =     -1.85016  eV     1   --> A              
     e( 17 - 17) =      2.67337  eV     1   --> A              
     e( 18 - 18) =      5.65093  eV     1   --> A              
     e( 19 - 19) =      5.88654  eV     1   --> A              
     e( 20 - 20) =      6.06331  eV     1   --> A              

 **************************************************************************

 **************************************************************************

                    xk=(  -0.08750,   0.05833,  -0.08750  )

     Band symmetry, C_1 (1)     point group:

     e(  1 -  1) =    -17.33065  eV     1   --> A              
     e(  2 -  2) =    -16.78484  eV     1   --> A              
     e(  3 -  3) =    -16.73860  eV     1   --> A              
     e(  4 -  4) =    -16.69898  eV     1   --> A              
     e(  5 -  5) =     -7.63453  eV     1   --> A              
     e(  6 -  6) =     -7.62098  eV     1   --> A              
     e(  7 -  7) =     -7.55290  eV     1   --> A              
     e(  8 -  8) =     -6.84378  eV     1   --> A              
     e(  9 -  9) =     -6.82437  eV     1   --> A              
     e( 10 - 10) =     -6.68032  eV     1   --> A              
     e( 11 - 11) =     -6.65466  eV     1   --> A              
     e( 12 - 12) =     -6.51773  eV     1   --> A              
     e( 13 - 13) =     -2.47019  eV     1   --> A              
     e( 14 - 14) =     -2.43305  eV     1   --> A              
     e( 15 - 15) =     -2.27590  eV     1   --> A              
     e( 16 - 16) =     -1.84374  eV     1   --> A              
     e( 17 - 17) =      2.61914  eV     1   --> A              
     e( 18 - 18) =      5.65971  eV     1   --> A              
     e( 19 - 19) =      5.86433  eV     1   --> A              
     e( 20 - 20) =      6.02107  eV     1   --> A              

 **************************************************************************

 **************************************************************************

                    xk=(  -0.07500,   0.05000,  -0.07500  )

     Band symmetry, C_1 (1)     point group:

     e(  1 -  1) =    -17.33686  eV     1   --> A              
     e(  2 -  2) =    -16.77656  eV     1   --> A              
     e(  3 -  3) =    -16.73693  eV     1   --> A              
     e(  4 -  4) =    -16.70218  eV     1   --> A              
     e(  5 -  5) =     -7.63600  eV     1   --> A              
     e(  6 -  6) =     -7.62096  eV     1   --> A              
     e(  7 -  7) =     -7.56512  eV     1   --> A              
     e(  8 -  8) =     -6.83810  eV     1   --> A              
     e(  9 -  9) =     -6.82491  eV     1   --> A              
     e( 10 - 10) =     -6.67224  eV     1   --> A              
     e( 11 - 11) =     -6.64082  eV     1   --> A              
     e( 12 - 12) =     -6.52793  eV     1   --> A              
     e( 13 - 13) =     -2.45816  eV     1   --> A              
     e( 14 - 14) =     -2.41949  eV     1   --> A              
     e( 15 - 15) =     -2.29016  eV     1   --> A              
     e( 16 - 16) =     -1.83807  eV     1   --> A              
     e( 17 - 17) =      2.57123  eV     1   --> A              
     e( 18 - 18) =      5.67047  eV     1   --> A              
     e( 19 - 19) =      5.84403  eV     1   --> A              
     e( 20 - 20) =      5.98061  eV     1   --> A              

 **************************************************************************

 **************************************************************************

                    xk=(  -0.06250,   0.04167,  -0.06250  )

     Band symmetry, C_1 (1)     point group:

     e(  1 -  1) =    -17.34216  eV     1   --> A              
     e(  2 -  2) =    -16.76847  eV     1   --> A              
     e(  3 -  3) =    -16.73550  eV     1   --> A              
     e(  4 -  4) =    -16.70592  eV     1   --> A              
     e(  5 -  5) =     -7.63647  eV     1   --> A              
     e(  6 -  6) =     -7.62098  eV     1   --> A              
     e(  7 -  7) =     -7.57673  eV     1   --> A              
     e(  8 -  8) =     -6.83367  eV     1   --> A              
     e(  9 -  9) =     -6.82525  eV     1   --> A              
     e( 10 - 10) =     -6.66273  eV     1   --> A              
     e( 11 - 11) =     -6.62882  eV     1   --> A              
     e( 12 - 12) =     -6.53879  eV     1   --> A              
     e( 13 - 13) =     -2.44563  eV     1   --> A              
     e( 14 - 14) =     -2.40735  eV     1   --> A              
     e( 15 - 15) =     -2.30459  eV     1   --> A              
     e( 16 - 16) =     -1.83322  eV     1   --> A              
     e( 17 - 17) =      2.53001  eV     1   --> A              
     e( 18 - 18) =      5.68335  eV     1   --> A              
     e( 19 - 19) =      5.82608  eV     1   --> A              
     e( 20 - 20) =      5.94207  eV     1   --> A              

 **************************************************************************

 **************************************************************************

                    xk=(  -0.05000,   0.03333,  -0.05000  )

     Band symmetry, C_1 (1)     point group:

     e(  1 -  1) =    -17.34653  eV     1   --> A              
     e(  2 -  2) =    -16.76061  eV     1   --> A              
     e(  3 -  3) =    -16.73432  eV     1   --> A              
     e(  4 -  4) =    -16.71020  eV     1   --> A              
     e(  5 -  5) =     -7.63582  eV     1   --> A              
     e(  6 -  6) =     -7.62101  eV     1   --> A              
     e(  7 -  7) =     -7.58758  eV     1   --> A              
     e(  8 -  8) =     -6.83039  eV     1   --> A              
     e(  9 -  9) =     -6.82543  eV     1   --> A              
     e( 10 - 10) =     -6.65188  eV     1   --> A              
     e( 11 - 11) =     -6.61888  eV     1   --> A              
     e( 12 - 12) =     -6.55028  eV     1   --> A              
     e( 13 - 13) =     -2.43266  eV     1   --> A              
     e( 14 - 14) =     -2.39694  eV     1   --> A              
     e( 15 - 15) =     -2.31914  eV     1   --> A              
     e( 16 - 16) =     -1.82921  eV     1   --> A              
     e( 17 - 17) =      2.49579  eV     1   --> A              
     e( 18 - 18) =      5.69846  eV     1   --> A              
     e( 19 - 19) =      5.81087  eV     1   --> A              
     e( 20 - 20) =      5.90562  eV     1   --> A              

 **************************************************************************

 **************************************************************************

                    xk=(  -0.03750,   0.02500,  -0.03750  )

     Band symmetry, C_1 (1)     point group:

     e(  1 -  1) =    -17.34994  eV     1   --> A              
     e(  2 -  2) =    -16.75302  eV     1   --> A              
     e(  3 -  3) =    -16.73339  eV     1   --> A              
     e(  4 -  4) =    -16.71499  eV     1   --> A              
     e(  5 -  5) =     -7.63399  eV     1   --> A              
     e(  6 -  6) =     -7.62105  eV     1   --> A              
     e(  7 -  7) =     -7.59755  eV     1   --> A              
     e(  8 -  8) =     -6.82809  eV     1   --> A              
     e(  9 -  9) =     -6.82551  eV     1   --> A              
     e( 10 - 10) =     -6.63997  eV     1   --> A              
     e( 11 - 11) =     -6.61108  eV     1   --> A              
     e( 12 - 12) =     -6.56233  eV     1   --> A              
     e( 13 - 13) =     -2.41928  eV     1   --> A              
     e( 14 - 14) =     -2.38852  eV     1   --> A              
     e( 15 - 15) =     -2.33373  eV     1   --> A              
     e( 16 - 16) =     -1.82607  eV     1   --> A              
     e( 17 - 17) =      2.46887  eV     1   --> A              
     e( 18 - 18) =      5.71589  eV     1   --> A              
     e( 19 - 19) =      5.79872  eV     1   --> A              
     e( 20 - 20) =      5.87137  eV     1   --> A              

 **************************************************************************

 **************************************************************************

                    xk=(  -0.02500,   0.01667,  -0.02500  )

     Band symmetry, C_1 (1)     point group:

     e(  1 -  1) =    -17.35239  eV     1   --> A              
     e(  2 -  2) =    -16.74573  eV     1   --> A              
     e(  3 -  3) =    -16.73273  eV     1   --> A              
     e(  4 -  4) =    -16.72027  eV     1   --> A              
     e(  5 -  5) =     -7.63094  eV     1   --> A              
     e(  6 -  6) =     -7.62109  eV     1   --> A              
     e(  7 -  7) =     -7.60652  eV     1   --> A              
     e(  8 -  8) =     -6.82661  eV     1   --> A              
     e(  9 -  9) =     -6.82553  eV     1   --> A              
     e( 10 - 10) =     -6.62732  eV     1   --> A              
     e( 11 - 11) =     -6.60550  eV     1   --> A              
     e( 12 - 12) =     -6.57488  eV     1   --> A              
     e( 13 - 13) =     -2.40556  eV     1   --> A              
     e( 14 - 14) =     -2.38235  eV     1   --> A              
     e( 15 - 15) =     -2.34833  eV     1   --> A              
     e( 16 - 16) =     -1.82382  eV     1   --> A              
     e( 17 - 17) =      2.44948  eV     1   --> A              
     e( 18 - 18) =      5.73572  eV     1   --> A              
     e( 19 - 19) =      5.78987  eV     1   --> A              
     e( 20 - 20) =      5.83942  eV     1   --> A              

 **************************************************************************

 **************************************************************************

                    xk=(  -0.01250,   0.00833,  -0.01250  )

     Band symmetry, C_1 (1)     point group:

     e(  1 -  1) =    -17.35386  eV     1   --> A              
     e(  2 -  2) =    -16.73877  eV     1   --> A              
     e(  3 -  3) =    -16.73232  eV     1   --> A              
     e(  4 -  4) =    -16.72601  eV     1   --> A              
     e(  5 -  5) =     -7.62665  eV     1   --> A              
     e(  6 -  6) =     -7.62111  eV     1   --> A              
     e(  7 -  7) =     -7.61440  eV     1   --> A              
     e(  8 -  8) =     -6.82578  eV     1   --> A              
     e(  9 -  9) =     -6.82552  eV     1   --> A              
     e( 10 - 10) =     -6.61423  eV     1   --> A              
     e( 11 - 11) =     -6.60212  eV     1   --> A              
     e( 12 - 12) =     -6.58781  eV     1   --> A              
     e( 13 - 13) =     -2.39154  eV     1   --> A              
     e( 14 - 14) =     -2.37857  eV     1   --> A              
     e( 15 - 15) =     -2.36286  eV     1   --> A              
     e( 16 - 16) =     -1.82246  eV     1   --> A              
     e( 17 - 17) =      2.43777  eV     1   --> A              
     e( 18 - 18) =      5.75797  eV     1   --> A              
     e( 19 - 19) =      5.78449  eV     1   --> A              
     e( 20 - 20) =      5.80984  eV     1   --> A              

 **************************************************************************

 **************************************************************************

                    xk=(   0.00000,   0.00000,   0.00000  )

     point group T    (23)  
     there are  4 classes
     the character table:

       E     3C2   4C3   4C3' 
A      1.00  1.00  1.00  1.00
E      1.00  1.00 -0.50 -0.50
E*     1.00  1.00 -0.50 -0.50
T      3.00 -1.00  0.00  0.00
     imaginary part
A      0.00  0.00  0.00  0.00
E      0.00  0.00  0.87 -0.87
E*     0.00  0.00 -0.87  0.87
T      0.00  0.00  0.00  0.00

     the symmetry operations in each class and the name of the first element:

     E        1
                                                                 
     3C2      2    3    4
                                                                 
     4C3      9   12   10   11
                                                                 
     4C3'     5    7    8    6
                                                                 

     Band symmetry, T    (23)   point group:

     e(  1 -  1) =    -17.35434  eV     1   --> A              
     e(  2 -  4) =    -16.73218  eV     3   --> T              
     e(  5 -  7) =     -7.62108  eV     3   --> T              
     e(  8 -  9) =     -6.82548  eV     2   --> E              
     e(  8 -  9) =     -6.82548  eV     2   --> E*             
     e( 10 - 12) =     -6.60095  eV     3   --> T              
     e( 13 - 15) =     -2.37724  eV     3   --> T              
     e( 16 - 16) =     -1.82196  eV     1   --> A              
     e( 17 - 17) =      2.43386  eV     1   --> A              
     e( 18 - 20) =      5.78269  eV     3   --> T              

 **************************************************************************

     BANDS        :     11.69s CPU     13.46s WALL


   This run was terminated on:   5:45: 1  14Dec2022            

=------------------------------------------------------------------------------=
   JOB DONE.
=------------------------------------------------------------------------------=
