
     Program PWSCF v.7.1 starts on 14Dec2022 at  8: 1: 5 

     This program is part of the open-source Quantum ESPRESSO suite
     for quantum simulation of materials; please cite
         "P. Giannozzi et al., J. Phys.:Condens. Matter 21 395502 (2009);
         "P. Giannozzi et al., J. Phys.:Condens. Matter 29 465901 (2017);
         "P. Giannozzi et al., J. Chem. Phys. 152 154105 (2020);
          URL http://www.quantum-espresso.org", 
     in publications or presentations arising from this work. More details at
     http://www.quantum-espresso.org/quote

     Parallel version (MPI), running on    14 processors

     MPI processes distributed on     1 nodes
     23425 MiB available memory on the printing compute node when the environment starts

     Reading input from pwrelax.in

     Current dimensions of program PWSCF are:
     Max number of different atomic species (ntypx) = 10
     Max number of k-points (npk) =  40000
     Max angular momentum in pseudopotentials (lmaxx) =  4
     Message from routine setup:
     using ibrav=0 with symmetry is DISCOURAGED, use correct ibrav instead

     R & G space division:  proc/nbgrp/npool/nimage =      14
     Subspace diagonalization in iterative solution of the eigenvalue problem:
     a serial algorithm will be used


     Parallelization info
     --------------------
     sticks:   dense  smooth     PW     G-vecs:    dense   smooth      PW
     Min         261     130     36                11875     4192     622
     Max         262     131     37                11878     4195     625
     Sum        3657    1829    509               166269    58701    8733

     Using Slab Decomposition



     bravais-lattice index     =            0
     lattice parameter (alat)  =       9.7806  a.u.
     unit-cell volume          =     935.6060 (a.u.)^3
     number of atoms/cell      =           16
     number of atomic types    =            2
     number of electrons       =        32.00
     number of Kohn-Sham states=           20
     kinetic-energy cutoff     =      60.0000  Ry
     charge density cutoff     =     480.0000  Ry
     scf convergence threshold =      3.2E-09
     mixing beta               =       0.4000
     number of iterations used =            8  plain     mixing
     energy convergence thresh.=      1.6E-04
     force convergence thresh. =      1.0E-04
     press convergence thresh. =      5.0E-01
     Exchange-correlation= PBE
                           (   1   4   3   4   0   0   0)
     nstep                     =           50


     celldm(1)=   9.780574  celldm(2)=   0.000000  celldm(3)=   0.000000
     celldm(4)=   0.000000  celldm(5)=   0.000000  celldm(6)=   0.000000

     crystal axes: (cart. coord. in units of alat)
               a(1) = (   1.000000   0.000000   0.000000 )  
               a(2) = (   0.000000   1.000000   0.000000 )  
               a(3) = (   0.000000   0.000000   1.000000 )  

     reciprocal axes: (cart. coord. in units 2 pi/alat)
               b(1) = (  1.000000  0.000000  0.000000 )  
               b(2) = (  0.000000  1.000000  0.000000 )  
               b(3) = (  0.000000  0.000000  1.000000 )  


     PseudoPot. # 1 for H  read from file:
     ./pseudo/H.pbe-rrkjus_psl.1.0.0.UPF
     MD5 check sum: 3f4114867bd07edc7f1424d066fc1888
     Pseudo is Ultrasoft, Zval =  1.0
     Generated using &quot;atomic&quot; code by A. Dal Corso  v.6.3MaX
     Using radial grid of  929 points,  2 beta functions with: 
                l(1) =   0
                l(2) =   0
     Q(r) pseudized with 0 coefficients 


     PseudoPot. # 2 for N  read from file:
     ./pseudo/N.pbe-n-rrkjus_psl.1.0.0.UPF
     MD5 check sum: ada94e3ed05223de5319d0572dc76806
     Pseudo is Ultrasoft + core correction, Zval =  5.0
     Generated using &quot;atomic&quot; code by A. Dal Corso  v.6.3MaX
     Using radial grid of 1085 points,  4 beta functions with: 
                l(1) =   0
                l(2) =   0
                l(3) =   1
                l(4) =   1
     Q(r) pseudized with 0 coefficients 


     atomic species   valence    mass     pseudopotential
        H              1.00     1.00794     H ( 1.00)
        N              5.00    14.00670     N ( 1.00)

     12 Sym. Ops. (no inversion) found ( 9 have fractional translation)


                                    s                        frac. trans.

      isym =  1     identity                                     

 cryst.   s( 1) = (     1          0          0      )
                  (     0          1          0      )
                  (     0          0          1      )

 cart.    s( 1) = (  1.0000000  0.0000000  0.0000000 )
                  (  0.0000000  1.0000000  0.0000000 )
                  (  0.0000000  0.0000000  1.0000000 )


      isym =  2     180 deg rotation - cart. axis [0,0,1]        

 cryst.   s( 2) = (    -1          0          0      )    f =(  0.5000000 )
                  (     0         -1          0      )       (  0.0000000 )
                  (     0          0          1      )       ( -0.5000000 )

 cart.    s( 2) = ( -1.0000000  0.0000000  0.0000000 )    f =(  0.5000000 )
                  (  0.0000000 -1.0000000  0.0000000 )       (  0.0000000 )
                  (  0.0000000  0.0000000  1.0000000 )       ( -0.5000000 )


      isym =  3     180 deg rotation - cart. axis [0,1,0]        

 cryst.   s( 3) = (    -1          0          0      )    f =(  0.0000000 )
                  (     0          1          0      )       ( -0.5000000 )
                  (     0          0         -1      )       (  0.5000000 )

 cart.    s( 3) = ( -1.0000000  0.0000000  0.0000000 )    f =(  0.0000000 )
                  (  0.0000000  1.0000000  0.0000000 )       ( -0.5000000 )
                  (  0.0000000  0.0000000 -1.0000000 )       (  0.5000000 )


      isym =  4     180 deg rotation - cart. axis [1,0,0]        

 cryst.   s( 4) = (     1          0          0      )    f =( -0.5000000 )
                  (     0         -1          0      )       (  0.5000000 )
                  (     0          0         -1      )       (  0.0000000 )

 cart.    s( 4) = (  1.0000000  0.0000000  0.0000000 )    f =( -0.5000000 )
                  (  0.0000000 -1.0000000  0.0000000 )       (  0.5000000 )
                  (  0.0000000  0.0000000 -1.0000000 )       (  0.0000000 )


      isym =  5     120 deg rotation - cart. axis [-1,-1,-1]     

 cryst.   s( 5) = (     0          0          1      )
                  (     1          0          0      )
                  (     0          1          0      )

 cart.    s( 5) = (  0.0000000  1.0000000  0.0000000 )
                  (  0.0000000  0.0000000  1.0000000 )
                  (  1.0000000  0.0000000  0.0000000 )


      isym =  6     120 deg rotation - cart. axis [-1,1,1]       

 cryst.   s( 6) = (     0          0         -1      )    f =(  0.0000000 )
                  (    -1          0          0      )       ( -0.5000000 )
                  (     0          1          0      )       (  0.5000000 )

 cart.    s( 6) = (  0.0000000 -1.0000000  0.0000000 )    f =(  0.0000000 )
                  (  0.0000000  0.0000000  1.0000000 )       ( -0.5000000 )
                  ( -1.0000000  0.0000000  0.0000000 )       (  0.5000000 )


      isym =  7     120 deg rotation - cart. axis [1,1,-1]       

 cryst.   s( 7) = (     0          0         -1      )    f =( -0.5000000 )
                  (     1          0          0      )       (  0.5000000 )
                  (     0         -1          0      )       (  0.0000000 )

 cart.    s( 7) = (  0.0000000  1.0000000  0.0000000 )    f =( -0.5000000 )
                  (  0.0000000  0.0000000 -1.0000000 )       (  0.5000000 )
                  ( -1.0000000  0.0000000  0.0000000 )       (  0.0000000 )


      isym =  8     120 deg rotation - cart. axis [1,-1,1]       

 cryst.   s( 8) = (     0          0          1      )    f =(  0.5000000 )
                  (    -1          0          0      )       (  0.0000000 )
                  (     0         -1          0      )       ( -0.5000000 )

 cart.    s( 8) = (  0.0000000 -1.0000000  0.0000000 )    f =(  0.5000000 )
                  (  0.0000000  0.0000000 -1.0000000 )       (  0.0000000 )
                  (  1.0000000  0.0000000  0.0000000 )       ( -0.5000000 )


      isym =  9     120 deg rotation - cart. axis [1,1,1]        

 cryst.   s( 9) = (     0          1          0      )
                  (     0          0          1      )
                  (     1          0          0      )

 cart.    s( 9) = (  0.0000000  0.0000000  1.0000000 )
                  (  1.0000000  0.0000000  0.0000000 )
                  (  0.0000000  1.0000000  0.0000000 )


      isym = 10     120 deg rotation - cart. axis [-1,1,-1]      

 cryst.   s(10) = (     0         -1          0      )    f =( -0.5000000 )
                  (     0          0         -1      )       (  0.5000000 )
                  (     1          0          0      )       (  0.0000000 )

 cart.    s(10) = (  0.0000000  0.0000000  1.0000000 )    f =( -0.5000000 )
                  ( -1.0000000  0.0000000  0.0000000 )       (  0.5000000 )
                  (  0.0000000 -1.0000000  0.0000000 )       (  0.0000000 )


      isym = 11     120 deg rotation - cart. axis [1,-1,-1]      

 cryst.   s(11) = (     0         -1          0      )    f =(  0.5000000 )
                  (     0          0          1      )       (  0.0000000 )
                  (    -1          0          0      )       ( -0.5000000 )

 cart.    s(11) = (  0.0000000  0.0000000 -1.0000000 )    f =(  0.5000000 )
                  ( -1.0000000  0.0000000  0.0000000 )       (  0.0000000 )
                  (  0.0000000  1.0000000  0.0000000 )       ( -0.5000000 )


      isym = 12     120 deg rotation - cart. axis [-1,-1,1]      

 cryst.   s(12) = (     0          1          0      )    f =(  0.0000000 )
                  (     0          0         -1      )       ( -0.5000000 )
                  (    -1          0          0      )       (  0.5000000 )

 cart.    s(12) = (  0.0000000  0.0000000 -1.0000000 )    f =(  0.0000000 )
                  (  1.0000000  0.0000000  0.0000000 )       ( -0.5000000 )
                  (  0.0000000 -1.0000000  0.0000000 )       (  0.5000000 )


   Cartesian axes

     site n.     atom                  positions (alat units)
         1           N   tau(   1) = (   0.1965969   0.1965969   0.1965969  )
         2           N   tau(   2) = (   0.3034031   0.8034031   0.6965969  )
         3           N   tau(   3) = (   0.8034031   0.6965969   0.3034031  )
         4           N   tau(   4) = (   0.6965969   0.3034031   0.8034031  )
         5           H   tau(   5) = (   0.3510363   0.2703623   0.0960458  )
         6           H   tau(   6) = (   0.1489637   0.7296377   0.5960458  )
         7           H   tau(   7) = (   0.6489637   0.7703623   0.4039542  )
         8           H   tau(   8) = (   0.8510363   0.2296377   0.9039542  )
         9           H   tau(   9) = (   0.0960458   0.3510363   0.2703623  )
        10           H   tau(  10) = (   0.5960458   0.1489637   0.7296377  )
        11           H   tau(  11) = (   0.4039542   0.6489637   0.7703623  )
        12           H   tau(  12) = (   0.9039542   0.8510363   0.2296377  )
        13           H   tau(  13) = (   0.2703623   0.0960458   0.3510363  )
        14           H   tau(  14) = (   0.7296377   0.5960458   0.1489637  )
        15           H   tau(  15) = (   0.7703623   0.4039542   0.6489637  )
        16           H   tau(  16) = (   0.2296377   0.9039542   0.8510363  )

   Crystallographic axes

     site n.     atom                  positions (cryst. coord.)
         1           N   tau(   1) = (  0.1965969  0.1965969  0.1965969  )
         2           N   tau(   2) = (  0.3034031  0.8034031  0.6965969  )
         3           N   tau(   3) = (  0.8034031  0.6965969  0.3034031  )
         4           N   tau(   4) = (  0.6965969  0.3034031  0.8034031  )
         5           H   tau(   5) = (  0.3510363  0.2703623  0.0960458  )
         6           H   tau(   6) = (  0.1489637  0.7296377  0.5960458  )
         7           H   tau(   7) = (  0.6489637  0.7703623  0.4039542  )
         8           H   tau(   8) = (  0.8510363  0.2296377  0.9039542  )
         9           H   tau(   9) = (  0.0960458  0.3510363  0.2703623  )
        10           H   tau(  10) = (  0.5960458  0.1489637  0.7296377  )
        11           H   tau(  11) = (  0.4039542  0.6489637  0.7703623  )
        12           H   tau(  12) = (  0.9039542  0.8510363  0.2296377  )
        13           H   tau(  13) = (  0.2703623  0.0960458  0.3510363  )
        14           H   tau(  14) = (  0.7296377  0.5960458  0.1489637  )
        15           H   tau(  15) = (  0.7703623  0.4039542  0.6489637  )
        16           H   tau(  16) = (  0.2296377  0.9039542  0.8510363  )

     number of k points=    24  Marzari-Vanderbilt smearing, width (Ry)=  0.0147
                       cart. coord. in units 2pi/alat
        k(    1) = (   0.0000000   0.0000000   0.0000000), wk =   0.0058309
        k(    2) = (   0.0000000   0.0000000   0.1428571), wk =   0.0349854
        k(    3) = (   0.0000000   0.0000000   0.2857143), wk =   0.0349854
        k(    4) = (   0.0000000   0.0000000   0.4285714), wk =   0.0349854
        k(    5) = (   0.0000000   0.1428571   0.1428571), wk =   0.0699708
        k(    6) = (   0.0000000   0.1428571   0.2857143), wk =   0.0699708
        k(    7) = (   0.0000000   0.1428571   0.4285714), wk =   0.0699708
        k(    8) = (   0.0000000   0.2857143   0.2857143), wk =   0.0699708
        k(    9) = (   0.0000000   0.2857143   0.4285714), wk =   0.0699708
        k(   10) = (   0.0000000   0.4285714   0.4285714), wk =   0.0699708
        k(   11) = (   0.1428571   0.1428571   0.1428571), wk =   0.0466472
        k(   12) = (   0.1428571   0.1428571   0.2857143), wk =   0.1399417
        k(   13) = (   0.1428571   0.1428571   0.4285714), wk =   0.1399417
        k(   14) = (   0.1428571   0.2857143   0.2857143), wk =   0.1399417
        k(   15) = (   0.1428571   0.2857143   0.4285714), wk =   0.1399417
        k(   16) = (   0.1428571   0.4285714   0.4285714), wk =   0.1399417
        k(   17) = (   0.2857143   0.2857143   0.2857143), wk =   0.0466472
        k(   18) = (   0.2857143   0.2857143   0.4285714), wk =   0.1399417
        k(   19) = (   0.2857143   0.4285714   0.4285714), wk =   0.1399417
        k(   20) = (   0.4285714   0.4285714   0.4285714), wk =   0.0466472
        k(   21) = (   0.0000000   0.2857143   0.1428571), wk =   0.0699708
        k(   22) = (   0.0000000   0.4285714   0.1428571), wk =   0.0699708
        k(   23) = (   0.0000000   0.4285714   0.2857143), wk =   0.0699708
        k(   24) = (  -0.1428571   0.4285714   0.2857143), wk =   0.1399417

                       cryst. coord.
        k(    1) = (   0.0000000   0.0000000   0.0000000), wk =   0.0058309
        k(    2) = (   0.0000000   0.0000000   0.1428571), wk =   0.0349854
        k(    3) = (   0.0000000   0.0000000   0.2857143), wk =   0.0349854
        k(    4) = (   0.0000000   0.0000000   0.4285714), wk =   0.0349854
        k(    5) = (   0.0000000   0.1428571   0.1428571), wk =   0.0699708
        k(    6) = (   0.0000000   0.1428571   0.2857143), wk =   0.0699708
        k(    7) = (   0.0000000   0.1428571   0.4285714), wk =   0.0699708
        k(    8) = (   0.0000000   0.2857143   0.2857143), wk =   0.0699708
        k(    9) = (   0.0000000   0.2857143   0.4285714), wk =   0.0699708
        k(   10) = (   0.0000000   0.4285714   0.4285714), wk =   0.0699708
        k(   11) = (   0.1428571   0.1428571   0.1428571), wk =   0.0466472
        k(   12) = (   0.1428571   0.1428571   0.2857143), wk =   0.1399417
        k(   13) = (   0.1428571   0.1428571   0.4285714), wk =   0.1399417
        k(   14) = (   0.1428571   0.2857143   0.2857143), wk =   0.1399417
        k(   15) = (   0.1428571   0.2857143   0.4285714), wk =   0.1399417
        k(   16) = (   0.1428571   0.4285714   0.4285714), wk =   0.1399417
        k(   17) = (   0.2857143   0.2857143   0.2857143), wk =   0.0466472
        k(   18) = (   0.2857143   0.2857143   0.4285714), wk =   0.1399417
        k(   19) = (   0.2857143   0.4285714   0.4285714), wk =   0.1399417
        k(   20) = (   0.4285714   0.4285714   0.4285714), wk =   0.0466472
        k(   21) = (   0.0000000   0.2857143   0.1428571), wk =   0.0699708
        k(   22) = (   0.0000000   0.4285714   0.1428571), wk =   0.0699708
        k(   23) = (   0.0000000   0.4285714   0.2857143), wk =   0.0699708
        k(   24) = (  -0.1428571   0.4285714   0.2857143), wk =   0.1399417

     Dense  grid:   166269 G-vectors     FFT dimensions: (  72,  72,  72)

     Smooth grid:    58701 G-vectors     FFT dimensions: (  50,  50,  50)

     Dynamical RAM for                 wfc:       0.16 MB

     Dynamical RAM for     wfc (w. buffer):       4.00 MB

     Dynamical RAM for           str. fact:       0.36 MB

     Dynamical RAM for           local pot:       0.00 MB

     Dynamical RAM for          nlocal pot:       0.45 MB

     Dynamical RAM for                qrad:       2.01 MB

     Dynamical RAM for          rho,v,vnew:       1.26 MB

     Dynamical RAM for               rhoin:       0.42 MB

     Dynamical RAM for            rho*nmix:       2.90 MB

     Dynamical RAM for           G-vectors:       0.71 MB

     Dynamical RAM for          h,s,v(r/c):       0.07 MB

     Dynamical RAM for          <psi|beta>:       0.02 MB

     Dynamical RAM for                 psi:       0.32 MB

     Dynamical RAM for                hpsi:       0.32 MB

     Dynamical RAM for                spsi:       0.32 MB

     Dynamical RAM for      wfcinit/wfcrot:       0.47 MB

     Dynamical RAM for           addusdens:       9.97 MB

     Dynamical RAM for          addusforce:      14.06 MB

     Dynamical RAM for         addusstress:       9.06 MB

     Estimated static dynamical RAM per process >      10.93 MB

     Estimated max dynamical RAM per process >      27.89 MB

     Estimated total dynamical RAM >     390.43 MB

     Check: negative core charge=   -0.000001

     Initial potential from superposition of free atoms

     starting charge      31.9999, renormalised to      32.0000
     Starting wfcs are   28 randomized atomic wfcs

     total cpu time spent up to now is        4.4 secs

     Self-consistent Calculation

     iteration #  1     ecut=    60.00 Ry     beta= 0.40
     Davidson diagonalization with overlap

---- Real-time Memory Report at c_bands before calling an iterative solver
            46 MiB given to the printing process from OS
             0 MiB allocation reported by mallinfo(arena+hblkhd)
         23141 MiB available memory on the node where the printing process lives
------------------
     ethr =  1.00E-02,  avg # of iterations =  3.0

     total cpu time spent up to now is        8.3 secs

     total energy              =     -95.85301964 Ry
     estimated scf accuracy    <       2.21175880 Ry

     iteration #  2     ecut=    60.00 Ry     beta= 0.40
     Davidson diagonalization with overlap

---- Real-time Memory Report at c_bands before calling an iterative solver
            54 MiB given to the printing process from OS
             0 MiB allocation reported by mallinfo(arena+hblkhd)
         23033 MiB available memory on the node where the printing process lives
------------------
     ethr =  6.91E-03,  avg # of iterations =  2.0

     total cpu time spent up to now is       11.5 secs

     total energy              =     -96.24364761 Ry
     estimated scf accuracy    <       0.11880527 Ry

     iteration #  3     ecut=    60.00 Ry     beta= 0.40
     Davidson diagonalization with overlap

---- Real-time Memory Report at c_bands before calling an iterative solver
            55 MiB given to the printing process from OS
             0 MiB allocation reported by mallinfo(arena+hblkhd)
         23024 MiB available memory on the node where the printing process lives
------------------
     ethr =  3.71E-04,  avg # of iterations =  5.1

     total cpu time spent up to now is       14.6 secs

     total energy              =     -96.23292517 Ry
     estimated scf accuracy    <       0.04177135 Ry

     iteration #  4     ecut=    60.00 Ry     beta= 0.40
     Davidson diagonalization with overlap

---- Real-time Memory Report at c_bands before calling an iterative solver
            55 MiB given to the printing process from OS
             0 MiB allocation reported by mallinfo(arena+hblkhd)
         23020 MiB available memory on the node where the printing process lives
------------------
     ethr =  1.31E-04,  avg # of iterations =  3.3

     total cpu time spent up to now is       17.5 secs

     total energy              =     -96.23519118 Ry
     estimated scf accuracy    <       0.00176228 Ry

     iteration #  5     ecut=    60.00 Ry     beta= 0.40
     Davidson diagonalization with overlap

---- Real-time Memory Report at c_bands before calling an iterative solver
            55 MiB given to the printing process from OS
             0 MiB allocation reported by mallinfo(arena+hblkhd)
         23070 MiB available memory on the node where the printing process lives
------------------
     ethr =  5.51E-06,  avg # of iterations =  5.9

     total cpu time spent up to now is       21.2 secs

     total energy              =     -96.23500454 Ry
     estimated scf accuracy    <       0.00069287 Ry

     iteration #  6     ecut=    60.00 Ry     beta= 0.40
     Davidson diagonalization with overlap

---- Real-time Memory Report at c_bands before calling an iterative solver
            55 MiB given to the printing process from OS
             0 MiB allocation reported by mallinfo(arena+hblkhd)
         23070 MiB available memory on the node where the printing process lives
------------------
     ethr =  2.17E-06,  avg # of iterations =  2.4

     total cpu time spent up to now is       24.8 secs

     total energy              =     -96.23518339 Ry
     estimated scf accuracy    <       0.00011590 Ry

     iteration #  7     ecut=    60.00 Ry     beta= 0.40
     Davidson diagonalization with overlap

---- Real-time Memory Report at c_bands before calling an iterative solver
            55 MiB given to the printing process from OS
             0 MiB allocation reported by mallinfo(arena+hblkhd)
         23061 MiB available memory on the node where the printing process lives
------------------
     ethr =  3.62E-07,  avg # of iterations =  2.0

     total cpu time spent up to now is       28.0 secs

     total energy              =     -96.23521092 Ry
     estimated scf accuracy    <       0.00000996 Ry

     iteration #  8     ecut=    60.00 Ry     beta= 0.40
     Davidson diagonalization with overlap

---- Real-time Memory Report at c_bands before calling an iterative solver
            55 MiB given to the printing process from OS
             0 MiB allocation reported by mallinfo(arena+hblkhd)
         23060 MiB available memory on the node where the printing process lives
------------------
     ethr =  3.11E-08,  avg # of iterations =  2.0

     total cpu time spent up to now is       31.3 secs

     total energy              =     -96.23521390 Ry
     estimated scf accuracy    <       0.00000227 Ry

     iteration #  9     ecut=    60.00 Ry     beta= 0.40
     Davidson diagonalization with overlap

---- Real-time Memory Report at c_bands before calling an iterative solver
            55 MiB given to the printing process from OS
             0 MiB allocation reported by mallinfo(arena+hblkhd)
         23058 MiB available memory on the node where the printing process lives
------------------
     ethr =  7.08E-09,  avg # of iterations =  1.0

     total cpu time spent up to now is       33.7 secs

     total energy              =     -96.23521264 Ry
     estimated scf accuracy    <       0.00000221 Ry

     iteration # 10     ecut=    60.00 Ry     beta= 0.40
     Davidson diagonalization with overlap

---- Real-time Memory Report at c_bands before calling an iterative solver
            55 MiB given to the printing process from OS
             0 MiB allocation reported by mallinfo(arena+hblkhd)
         23057 MiB available memory on the node where the printing process lives
------------------
     ethr =  6.91E-09,  avg # of iterations =  2.0

     total cpu time spent up to now is       37.0 secs

     total energy              =     -96.23521327 Ry
     estimated scf accuracy    <       0.00000044 Ry

     iteration # 11     ecut=    60.00 Ry     beta= 0.40
     Davidson diagonalization with overlap

---- Real-time Memory Report at c_bands before calling an iterative solver
            56 MiB given to the printing process from OS
             0 MiB allocation reported by mallinfo(arena+hblkhd)
         23055 MiB available memory on the node where the printing process lives
------------------
     ethr =  1.36E-09,  avg # of iterations =  2.0

     total cpu time spent up to now is       40.1 secs

     End of self-consistent calculation

          k = 0.0000 0.0000 0.0000 (  7249 PWs)   bands (ev):

   -17.3368 -16.7060 -16.7060 -16.7060  -7.6047  -7.6047  -7.6047  -6.8009
    -6.8009  -6.5745  -6.5745  -6.5745  -2.3527  -2.3527  -2.3527  -1.7978
     2.4668   5.8058   5.8058   5.8058

     occupation numbers 
     1.0000   1.0000   1.0000   1.0000   1.0000   1.0000   1.0000   1.0000
     1.0000   1.0000   1.0000   1.0000   1.0000   1.0000   1.0000   1.0000
     0.0000   0.0000   0.0000   0.0000

          k = 0.0000 0.0000 0.1429 (  7296 PWs)   bands (ev):

   -17.3105 -16.7708 -16.7022 -16.6738  -7.6215  -7.5995  -7.5288  -6.8373
    -6.7789  -6.6856  -6.5985  -6.5016  -2.4563  -2.4062  -2.2495  -1.8219
     2.6710   5.6314   5.9702   6.0262

     occupation numbers 
     1.0000   1.0000   1.0000   1.0000   1.0000   1.0000   1.0000   1.0000
     1.0000   1.0000   1.0000   1.0000   1.0000   1.0000   1.0000   1.0000
     0.0000   0.0000   0.0000   0.0000

          k = 0.0000 0.0000 0.2857 (  7328 PWs)   bands (ev):

   -17.2358 -16.8708 -16.6920 -16.6641  -7.5997  -7.5854  -7.3947  -6.9330
    -6.7893  -6.7322  -6.6561  -6.4898  -2.5455  -2.5134  -2.1537  -1.8878
     3.2186   5.3329   6.3013   6.3987

     occupation numbers 
     1.0000   1.0000   1.0000   1.0000   1.0000   1.0000   1.0000   1.0000
     1.0000   1.0000   1.0000   1.0000   1.0000   1.0000   1.0000   1.0000
     0.0000   0.0000   0.0000   0.0000

          k = 0.0000 0.0000 0.4286 (  7344 PWs)   bands (ev):

   -17.1246 -16.9955 -16.6791 -16.6680  -7.5739  -7.5709  -7.2276  -7.0664
    -6.8312  -6.7853  -6.6131  -6.5353  -2.5981  -2.5898  -2.0640  -1.9746
     3.9643   4.7356   6.6460   6.8030

     occupation numbers 
     1.0000   1.0000   1.0000   1.0000   1.0000   1.0000   1.0000   1.0000
     1.0000   1.0000   1.0000   1.0000   1.0000   1.0000   1.0000   1.0000
     0.0000   0.0000   0.0000   0.0000

          k = 0.0000 0.1429 0.1429 (  7331 PWs)   bands (ev):

   -17.2853 -16.7924 -16.7158 -16.6658  -7.6090  -7.6013  -7.4898  -6.8521
    -6.7959  -6.6866  -6.6638  -6.4666  -2.4863  -2.4581  -2.2060  -1.8440
     2.8592   5.6460   5.9725   6.2031

     occupation numbers 
     1.0000   1.0000   1.0000   1.0000   1.0000   1.0000   1.0000   1.0000
     1.0000   1.0000   1.0000   1.0000   1.0000   1.0000   1.0000   1.0000
     0.0000   0.0000   0.0000   0.0000

          k = 0.0000 0.1429 0.2857 (  7325 PWs)   bands (ev):

   -17.2136 -16.8712 -16.7125 -16.6665  -7.5976  -7.5852  -7.3839  -6.9170
    -6.8570  -6.7410  -6.6561  -6.4573  -2.5479  -2.5420  -2.1323  -1.9027
     3.3719   5.4526   6.1126   6.6036

     occupation numbers 
     1.0000   1.0000   1.0000   1.0000   1.0000   1.0000   1.0000   1.0000
     1.0000   1.0000   1.0000   1.0000   1.0000   1.0000   1.0000   1.0000
     0.0000   0.0000   0.0000   0.0000

          k = 0.0000 0.1429 0.4286 (  7354 PWs)   bands (ev):

   -17.1074 -16.9854 -16.6962 -16.6785  -7.5854  -7.5757  -7.2314  -7.0612
    -6.8712  -6.8159  -6.5784  -6.5007  -2.5964  -2.5930  -2.0567  -1.9790
     4.0873   4.8511   6.4701   6.8137

     occupation numbers 
     1.0000   1.0000   1.0000   1.0000   1.0000   1.0000   1.0000   1.0000
     1.0000   1.0000   1.0000   1.0000   1.0000   1.0000   1.0000   1.0000
     0.0000   0.0000   0.0000   0.0000

          k = 0.0000 0.2857 0.2857 (  7349 PWs)   bands (ev):

   -17.1509 -16.8916 -16.7414 -16.6822  -7.6019  -7.5688  -7.3610  -6.9928
    -6.8889  -6.7468  -6.6232  -6.4462  -2.5865  -2.5596  -2.0908  -1.9413
     3.7997   5.5959   5.9671   6.8385

     occupation numbers 
     1.0000   1.0000   1.0000   1.0000   1.0000   1.0000   1.0000   1.0000
     1.0000   1.0000   1.0000   1.0000   1.0000   1.0000   1.0000   1.0000
     0.0000   0.0000   0.0000   0.0000

          k = 0.0000 0.2857 0.4286 (  7340 PWs)   bands (ev):

   -17.0603 -16.9627 -16.7359 -16.7091  -7.5953  -7.5809  -7.2726  -7.1367
    -6.8565  -6.7944  -6.5449  -6.4763  -2.6000  -2.5873  -2.0416  -1.9908
     4.4338   5.1681   6.0764   6.5523

     occupation numbers 
     1.0000   1.0000   1.0000   1.0000   1.0000   1.0000   1.0000   1.0000
     1.0000   1.0000   1.0000   1.0000   1.0000   1.0000   1.0000   1.0000
     0.0000   0.0000   0.0000   0.0000

          k = 0.0000 0.4286 0.4286 (  7349 PWs)   bands (ev):

   -16.9991 -16.9570 -16.7647 -16.7477  -7.5882  -7.5768  -7.3094  -7.2556
    -6.7765  -6.7422  -6.5377  -6.5029  -2.5943  -2.5865  -2.0253  -2.0074
     4.9436   5.5217   5.6212   6.0977

     occupation numbers 
     1.0000   1.0000   1.0000   1.0000   1.0000   1.0000   1.0000   1.0000
     1.0000   1.0000   1.0000   1.0000   1.0000   1.0000   1.0000   1.0000
     0.0000   0.0000   0.0000   0.0000

          k = 0.1429 0.1429 0.1429 (  7349 PWs)   bands (ev):

   -17.2610 -16.8061 -16.7281 -16.6656  -7.6076  -7.5945  -7.4658  -6.8663
    -6.7887  -6.7561  -6.6573  -6.4423  -2.5010  -2.4992  -2.1752  -1.8643
     3.0321   5.6677   6.0295   6.2991

     occupation numbers 
     1.0000   1.0000   1.0000   1.0000   1.0000   1.0000   1.0000   1.0000
     1.0000   1.0000   1.0000   1.0000   1.0000   1.0000   1.0000   1.0000
     0.0000   0.0000   0.0000   0.0000

          k = 0.1429 0.1429 0.2857 (  7322 PWs)   bands (ev):

   -17.1922 -16.8707 -16.7283 -16.6731  -7.6102  -7.5762  -7.3938  -6.9328
    -6.8732  -6.7528  -6.6348  -6.4357  -2.5652  -2.5383  -2.1171  -1.9174
     3.5092   5.5021   6.1836   6.6098

     occupation numbers 
     1.0000   1.0000   1.0000   1.0000   1.0000   1.0000   1.0000   1.0000
     1.0000   1.0000   1.0000   1.0000   1.0000   1.0000   1.0000   1.0000
     0.0000   0.0000   0.0000   0.0000

          k = 0.1429 0.1429 0.4286 (  7345 PWs)   bands (ev):

   -17.0909 -16.9756 -16.7108 -16.6898  -7.6003  -7.5810  -7.2700  -7.1055
    -6.8495  -6.7857  -6.5623  -6.4808  -2.5955  -2.5795  -2.0536  -1.9854
     4.1869   4.9235   6.4990   6.8468

     occupation numbers 
     1.0000   1.0000   1.0000   1.0000   1.0000   1.0000   1.0000   1.0000
     1.0000   1.0000   1.0000   1.0000   1.0000   1.0000   1.0000   1.0000
     0.0000   0.0000   0.0000   0.0000

          k = 0.1429 0.2857 0.2857 (  7354 PWs)   bands (ev):

   -17.1323 -16.8874 -16.7535 -16.6922  -7.6194  -7.5809  -7.3937  -7.0536
    -6.8601  -6.7172  -6.5985  -6.4193  -2.5835  -2.5446  -2.0838  -1.9549
     3.9008   5.6213   5.9960   6.7213

     occupation numbers 
     1.0000   1.0000   1.0000   1.0000   1.0000   1.0000   1.0000   1.0000
     1.0000   1.0000   1.0000   1.0000   1.0000   1.0000   1.0000   1.0000
     0.0000   0.0000   0.0000   0.0000

          k = 0.1429 0.2857 0.4286 (  7349 PWs)   bands (ev):

   -17.0459 -16.9534 -16.7470 -16.7199  -7.6186  -7.6016  -7.3338  -7.2093
    -6.7993  -6.7351  -6.5223  -6.4495  -2.5811  -2.5622  -2.0449  -2.0011
     4.4910   5.1877   6.0597   6.4483

     occupation numbers 
     1.0000   1.0000   1.0000   1.0000   1.0000   1.0000   1.0000   1.0000
     1.0000   1.0000   1.0000   1.0000   1.0000   1.0000   1.0000   1.0000
     0.0000   0.0000   0.0000   0.0000

          k = 0.1429 0.4286 0.4286 (  7329 PWs)   bands (ev):

   -16.9873 -16.9471 -16.7740 -16.7572  -7.6180  -7.6065  -7.3809  -7.3305
    -6.7115  -6.6748  -6.5071  -6.4688  -2.5608  -2.5512  -2.0358  -2.0207
     4.9511   5.4946   5.5722   5.9876

     occupation numbers 
     1.0000   1.0000   1.0000   1.0000   1.0000   1.0000   1.0000   1.0000
     1.0000   1.0000   1.0000   1.0000   1.0000   1.0000   1.0000   1.0000
     0.0000   0.0000   0.0000   0.0000

          k = 0.2857 0.2857 0.2857 (  7331 PWs)   bands (ev):

   -17.0804 -16.8880 -16.7784 -16.7169  -7.6414  -7.6154  -7.4482  -7.2006
    -6.7836  -6.6282  -6.5655  -6.3895  -2.5632  -2.5165  -2.0712  -1.9904
     4.1987   5.6504   5.9769   6.2230

     occupation numbers 
     1.0000   1.0000   1.0000   1.0000   1.0000   1.0000   1.0000   1.0000
     1.0000   1.0000   1.0000   1.0000   1.0000   1.0000   1.0000   1.0000
     0.0000   0.0000   0.0000   0.0000

          k = 0.2857 0.2857 0.4286 (  7361 PWs)   bands (ev):

   -17.0066 -16.9311 -16.7763 -16.7484  -7.6533  -7.6426  -7.4453  -7.3506
    -6.6900  -6.6192  -6.4858  -6.4100  -2.5278  -2.5054  -2.0574  -2.0307
     4.6724   5.2641   5.9106   6.0484

     occupation numbers 
     1.0000   1.0000   1.0000   1.0000   1.0000   1.0000   1.0000   1.0000
     1.0000   1.0000   1.0000   1.0000   1.0000   1.0000   1.0000   1.0000
     0.0000   0.0000   0.0000   0.0000

          k = 0.2857 0.4286 0.4286 (  7346 PWs)   bands (ev):

   -16.9550 -16.9206 -16.8003 -16.7833  -7.6684  -7.6619  -7.5132  -7.4731
    -6.5904  -6.5481  -6.4538  -6.4104  -2.4698  -2.4590  -2.0730  -2.0649
     4.9951   5.4242   5.4619   5.6971

     occupation numbers 
     1.0000   1.0000   1.0000   1.0000   1.0000   1.0000   1.0000   1.0000
     1.0000   1.0000   1.0000   1.0000   1.0000   1.0000   1.0000   1.0000
     0.0000   0.0000   0.0000   0.0000

          k = 0.4286 0.4286 0.4286 (  7355 PWs)   bands (ev):

   -16.9124 -16.8926 -16.8311 -16.8179  -7.6903  -7.6856  -7.6095  -7.5896
    -6.4901  -6.4558  -6.4252  -6.3907  -2.3618  -2.3555  -2.1339  -2.1330
     5.1243   5.3588   5.3713   5.3744

     occupation numbers 
     1.0000   1.0000   1.0000   1.0000   1.0000   1.0000   1.0000   1.0000
     1.0000   1.0000   1.0000   1.0000   1.0000   1.0000   1.0000   1.0000
     0.0000   0.0000   0.0000   0.0000

          k = 0.0000 0.2857 0.1429 (  7325 PWs)   bands (ev):

   -17.2136 -16.8712 -16.7125 -16.6665  -7.6032  -7.5743  -7.3921  -6.9383
    -6.8249  -6.7353  -6.6639  -6.4631  -2.5582  -2.5300  -2.1339  -1.9027
     3.3709   5.4063   6.3290   6.4524

     occupation numbers 
     1.0000   1.0000   1.0000   1.0000   1.0000   1.0000   1.0000   1.0000
     1.0000   1.0000   1.0000   1.0000   1.0000   1.0000   1.0000   1.0000
     0.0000   0.0000   0.0000   0.0000

          k = 0.0000 0.4286 0.1429 (  7354 PWs)   bands (ev):

   -17.1074 -16.9854 -16.6962 -16.6785  -7.5855  -7.5671  -7.2510  -7.0850
    -6.8397  -6.7792  -6.5985  -6.5144  -2.6007  -2.5858  -2.0584  -1.9796
     4.0805   4.8272   6.7590   6.7940

     occupation numbers 
     1.0000   1.0000   1.0000   1.0000   1.0000   1.0000   1.0000   1.0000
     1.0000   1.0000   1.0000   1.0000   1.0000   1.0000   1.0000   1.0000
     0.0000   0.0000   0.0000   0.0000

          k = 0.0000 0.4286 0.2857 (  7340 PWs)   bands (ev):

   -17.0603 -16.9627 -16.7359 -16.7091  -7.5930  -7.5704  -7.2959  -7.1603
    -6.8237  -6.7520  -6.5709  -6.4922  -2.6003  -2.5829  -2.0438  -1.9918
     4.4170   5.0950   6.3465   6.7436

     occupation numbers 
     1.0000   1.0000   1.0000   1.0000   1.0000   1.0000   1.0000   1.0000
     1.0000   1.0000   1.0000   1.0000   1.0000   1.0000   1.0000   1.0000
     0.0000   0.0000   0.0000   0.0000

          k =-0.1429 0.4286 0.2857 (  7349 PWs)   bands (ev):

   -17.0459 -16.9534 -16.7470 -16.7199  -7.6174  -7.5961  -7.3440  -7.2182
    -6.7856  -6.7151  -6.5362  -6.4574  -2.5808  -2.5602  -2.0462  -2.0018
     4.4804   5.1402   6.2237   6.5254

     occupation numbers 
     1.0000   1.0000   1.0000   1.0000   1.0000   1.0000   1.0000   1.0000
     1.0000   1.0000   1.0000   1.0000   1.0000   1.0000   1.0000   1.0000
     0.0000   0.0000   0.0000   0.0000

     the Fermi energy is     0.0394 ev

!    total energy              =     -96.23521335 Ry
     estimated scf accuracy    <          1.1E-09 Ry
     smearing contrib. (-TS)   =       0.00000000 Ry
     internal energy E=F+TS    =     -96.23521335 Ry

     The total energy is F=E-TS. E is the sum of the following terms:
     one-electron contribution =     -62.11192408 Ry
     hartree contribution      =      40.33239298 Ry
     xc contribution           =     -31.66721504 Ry
     ewald contribution        =     -42.78846721 Ry

     convergence has been achieved in  11 iterations

     Forces acting on atoms (cartesian axes, Ry/au):

     atom    1 type  2   force =    -0.00000310   -0.00000310   -0.00000310
     atom    2 type  2   force =     0.00000310    0.00000310   -0.00000310
     atom    3 type  2   force =     0.00000310   -0.00000310    0.00000310
     atom    4 type  2   force =    -0.00000310    0.00000310    0.00000310
     atom    5 type  1   force =    -0.00000212    0.00000894    0.00000289
     atom    6 type  1   force =     0.00000212   -0.00000894    0.00000289
     atom    7 type  1   force =     0.00000212    0.00000894   -0.00000289
     atom    8 type  1   force =    -0.00000212   -0.00000894   -0.00000289
     atom    9 type  1   force =     0.00000289   -0.00000212    0.00000894
     atom   10 type  1   force =     0.00000289    0.00000212   -0.00000894
     atom   11 type  1   force =    -0.00000289    0.00000212    0.00000894
     atom   12 type  1   force =    -0.00000289   -0.00000212   -0.00000894
     atom   13 type  1   force =     0.00000894    0.00000289   -0.00000212
     atom   14 type  1   force =    -0.00000894    0.00000289    0.00000212
     atom   15 type  1   force =     0.00000894   -0.00000289    0.00000212
     atom   16 type  1   force =    -0.00000894   -0.00000289   -0.00000212
     The non-local contrib.  to forces
     atom    1 type  2   force =     0.70035835    0.70035835    0.70035835
     atom    2 type  2   force =    -0.70035835   -0.70035835    0.70035835
     atom    3 type  2   force =    -0.70035835    0.70035835   -0.70035835
     atom    4 type  2   force =     0.70035835   -0.70035835   -0.70035835
     atom    5 type  1   force =    -0.07207650   -0.03359999    0.04922721
     atom    6 type  1   force =     0.07207650    0.03359999    0.04922721
     atom    7 type  1   force =     0.07207650   -0.03359999   -0.04922721
     atom    8 type  1   force =    -0.07207650    0.03359999   -0.04922721
     atom    9 type  1   force =     0.04922721   -0.07207650   -0.03359999
     atom   10 type  1   force =     0.04922721    0.07207650    0.03359999
     atom   11 type  1   force =    -0.04922721    0.07207650   -0.03359999
     atom   12 type  1   force =    -0.04922721   -0.07207650    0.03359999
     atom   13 type  1   force =    -0.03359999    0.04922721   -0.07207650
     atom   14 type  1   force =     0.03359999    0.04922721    0.07207650
     atom   15 type  1   force =    -0.03359999   -0.04922721    0.07207650
     atom   16 type  1   force =     0.03359999   -0.04922721   -0.07207650
     The ionic contribution  to forces
     atom    1 type  2   force =    -1.12218573   -1.12218573   -1.12218573
     atom    2 type  2   force =     1.12218573    1.12218573   -1.12218573
     atom    3 type  2   force =     1.12218573   -1.12218573    1.12218573
     atom    4 type  2   force =    -1.12218573    1.12218573    1.12218573
     atom    5 type  1   force =     1.86115973    0.96404061   -1.17107556
     atom    6 type  1   force =    -1.86115973   -0.96404061   -1.17107556
     atom    7 type  1   force =    -1.86115973    0.96404061    1.17107556
     atom    8 type  1   force =     1.86115973   -0.96404061    1.17107556
     atom    9 type  1   force =    -1.17107556    1.86115973    0.96404061
     atom   10 type  1   force =    -1.17107556   -1.86115973   -0.96404061
     atom   11 type  1   force =     1.17107556   -1.86115973    0.96404061
     atom   12 type  1   force =     1.17107556    1.86115973   -0.96404061
     atom   13 type  1   force =     0.96404061   -1.17107556    1.86115973
     atom   14 type  1   force =    -0.96404061   -1.17107556   -1.86115973
     atom   15 type  1   force =     0.96404061    1.17107556   -1.86115973
     atom   16 type  1   force =    -0.96404061    1.17107556    1.86115973
     The local contribution  to forces
     atom    1 type  2   force =     0.43157380    0.43157380    0.43157380
     atom    2 type  2   force =    -0.43157380   -0.43157380    0.43157380
     atom    3 type  2   force =    -0.43157380    0.43157380   -0.43157380
     atom    4 type  2   force =     0.43157380   -0.43157380   -0.43157380
     atom    5 type  1   force =    -1.78908370   -0.93043106    1.12184946
     atom    6 type  1   force =     1.78908370    0.93043106    1.12184946
     atom    7 type  1   force =     1.78908370   -0.93043106   -1.12184946
     atom    8 type  1   force =    -1.78908370    0.93043106   -1.12184946
     atom    9 type  1   force =     1.12184946   -1.78908370   -0.93043106
     atom   10 type  1   force =     1.12184946    1.78908370    0.93043106
     atom   11 type  1   force =    -1.12184946    1.78908370   -0.93043106
     atom   12 type  1   force =    -1.12184946   -1.78908370    0.93043106
     atom   13 type  1   force =    -0.93043106    1.12184946   -1.78908370
     atom   14 type  1   force =     0.93043106    1.12184946    1.78908370
     atom   15 type  1   force =    -0.93043106   -1.12184946    1.78908370
     atom   16 type  1   force =     0.93043106   -1.12184946   -1.78908370
     The core correction contribution to forces
     atom    1 type  2   force =    -0.00975701   -0.00975701   -0.00975701
     atom    2 type  2   force =     0.00975701    0.00975701   -0.00975701
     atom    3 type  2   force =     0.00975701   -0.00975701    0.00975701
     atom    4 type  2   force =    -0.00975701    0.00975701    0.00975701
     atom    5 type  1   force =     0.00000000    0.00000000    0.00000000
     atom    6 type  1   force =     0.00000000    0.00000000    0.00000000
     atom    7 type  1   force =     0.00000000    0.00000000    0.00000000
     atom    8 type  1   force =     0.00000000    0.00000000    0.00000000
     atom    9 type  1   force =     0.00000000    0.00000000    0.00000000
     atom   10 type  1   force =     0.00000000    0.00000000    0.00000000
     atom   11 type  1   force =     0.00000000    0.00000000    0.00000000
     atom   12 type  1   force =     0.00000000    0.00000000    0.00000000
     atom   13 type  1   force =     0.00000000    0.00000000    0.00000000
     atom   14 type  1   force =     0.00000000    0.00000000    0.00000000
     atom   15 type  1   force =     0.00000000    0.00000000    0.00000000
     atom   16 type  1   force =     0.00000000    0.00000000    0.00000000
     The Hubbard contrib.    to forces
     atom    1 type  2   force =     0.00000000    0.00000000    0.00000000
     atom    2 type  2   force =     0.00000000    0.00000000    0.00000000
     atom    3 type  2   force =     0.00000000    0.00000000    0.00000000
     atom    4 type  2   force =     0.00000000    0.00000000    0.00000000
     atom    5 type  1   force =     0.00000000    0.00000000    0.00000000
     atom    6 type  1   force =     0.00000000    0.00000000    0.00000000
     atom    7 type  1   force =     0.00000000    0.00000000    0.00000000
     atom    8 type  1   force =     0.00000000    0.00000000    0.00000000
     atom    9 type  1   force =     0.00000000    0.00000000    0.00000000
     atom   10 type  1   force =     0.00000000    0.00000000    0.00000000
     atom   11 type  1   force =     0.00000000    0.00000000    0.00000000
     atom   12 type  1   force =     0.00000000    0.00000000    0.00000000
     atom   13 type  1   force =     0.00000000    0.00000000    0.00000000
     atom   14 type  1   force =     0.00000000    0.00000000    0.00000000
     atom   15 type  1   force =     0.00000000    0.00000000    0.00000000
     atom   16 type  1   force =     0.00000000    0.00000000    0.00000000
     The SCF correction term to forces
     atom    1 type  2   force =     0.00000749    0.00000749    0.00000749
     atom    2 type  2   force =    -0.00000749   -0.00000749    0.00000749
     atom    3 type  2   force =    -0.00000749    0.00000749   -0.00000749
     atom    4 type  2   force =     0.00000749   -0.00000749   -0.00000749
     atom    5 type  1   force =    -0.00000165   -0.00000062    0.00000177
     atom    6 type  1   force =     0.00000165    0.00000062    0.00000177
     atom    7 type  1   force =     0.00000165   -0.00000062   -0.00000177
     atom    8 type  1   force =    -0.00000165    0.00000062   -0.00000177
     atom    9 type  1   force =     0.00000177   -0.00000165   -0.00000062
     atom   10 type  1   force =     0.00000177    0.00000165    0.00000062
     atom   11 type  1   force =    -0.00000177    0.00000165   -0.00000062
     atom   12 type  1   force =    -0.00000177   -0.00000165    0.00000062
     atom   13 type  1   force =    -0.00000062    0.00000177   -0.00000165
     atom   14 type  1   force =     0.00000062    0.00000177    0.00000165
     atom   15 type  1   force =    -0.00000062   -0.00000177    0.00000165
     atom   16 type  1   force =     0.00000062   -0.00000177   -0.00000165

     Total force =     0.000035     Total SCF correction =     0.000027
     SCF correction compared to forces is large: reduce conv_thr to get better values


     Computing stress (Cartesian axis) and pressure

          total   stress  (Ry/bohr**3)                   (kbar)     P=        0.02
   0.00000012   0.00000000   0.00000000            0.02        0.00        0.00
   0.00000000   0.00000012   0.00000000            0.00        0.02        0.00
   0.00000000   0.00000000   0.00000012            0.00        0.00        0.02

     kinetic stress (kbar)   6385.75      0.00      0.00
                                0.00   6385.75      0.00
                                0.00      0.00   6385.75

     local   stress (kbar)  -4707.21     -0.00      0.00
                               -0.00  -4707.21     -0.00
                                0.00     -0.00  -4707.21

     nonloc. stress (kbar)    -26.75      0.00      0.00
                                0.00    -26.75      0.00
                                0.00      0.00    -26.75

     hartree stress (kbar)   2113.82      0.00     -0.00
                                0.00   2113.82     -0.00
                               -0.00     -0.00   2113.82

     exc-cor stress (kbar)  -1092.20      0.00     -0.00
                                0.00  -1092.20     -0.00
                               -0.00     -0.00  -1092.20

     corecor stress (kbar)   -430.85     -0.00      0.00
                               -0.00   -430.85      0.00
                                0.00      0.00   -430.85

     ewald   stress (kbar)  -2242.54     -0.00     -0.00
                               -0.00  -2242.54     -0.00
                               -0.00     -0.00  -2242.54

     hubbard stress (kbar)      0.00      0.00      0.00
                                0.00      0.00      0.00
                                0.00      0.00      0.00

     DFT-D   stress (kbar)      0.00      0.00      0.00
                                0.00      0.00      0.00
                                0.00      0.00      0.00

     XDM     stress (kbar)      0.00      0.00      0.00
                                0.00      0.00      0.00
                                0.00      0.00      0.00

     dft-nl  stress (kbar)      0.00      0.00      0.00
                                0.00      0.00      0.00
                                0.00      0.00      0.00

     TS-vdW  stress (kbar)      0.00      0.00      0.00
                                0.00      0.00      0.00
                                0.00      0.00      0.00

     MDB     stress (kbar)      0.00      0.00      0.00
                                0.00      0.00      0.00
                                0.00      0.00      0.00

     3D-RISM stress (kbar)      0.00      0.00      0.00
                                0.00      0.00      0.00
                                0.00      0.00      0.00


     BFGS Geometry Optimization
     Energy error            =      0.0E+00 Ry
     Gradient error          =      8.9E-06 Ry/Bohr
     Cell gradient error     =      1.0E+02 kbar

     number of scf cycles    =   1
     number of bfgs steps    =   0

     enthalpy           new  =     -95.5992013084 Ry

     new trust radius        =       0.1039472188 bohr
     new conv_thr            =       0.0000000032 Ry

     new unit-cell volume =    888.71924 a.u.^3 (   131.69460 Ang^3 )
     density =      0.85895 g/cm^3

CELL_PARAMETERS (angstrom)
   5.087713650   0.000000000   0.000000000
   0.000000000   5.087713650   0.000000000
   0.000000000   0.000000000   5.087713650

ATOMIC_POSITIONS (crystal)
N             0.1965965626        0.1965965626        0.1965965626
N             0.3034034374        0.8034034374        0.6965965626
N             0.8034034374        0.6965965626        0.3034034374
N             0.6965965626        0.3034034374        0.8034034374
H             0.3510361211        0.2703632422        0.0960460663
H             0.1489638789        0.7296367578        0.5960460663
H             0.6489638789        0.7703632422        0.4039539337
H             0.8510361211        0.2296367578        0.9039539337
H             0.0960460663        0.3510361211        0.2703632422
H             0.5960460663        0.1489638789        0.7296367578
H             0.4039539337        0.6489638789        0.7703632422
H             0.9039539337        0.8510361211        0.2296367578
H             0.2703632422        0.0960460663        0.3510361211
H             0.7296367578        0.5960460663        0.1489638789
H             0.7703632422        0.4039539337        0.6489638789
H             0.2296367578        0.9039539337        0.8510361211



     Writing config-only to output data dir ./out/AC_Ph_1.save/
     NEW-OLD atomic charge density approx. for the potential

     Check: negative core charge=   -0.000002
     extrapolated charge   30.31176, renormalised to   32.00000

     total cpu time spent up to now is       48.8 secs

     Self-consistent Calculation

     iteration #  1     ecut=    60.00 Ry     beta= 0.40
     Davidson diagonalization with overlap

---- Real-time Memory Report at c_bands before calling an iterative solver
            56 MiB given to the printing process from OS
             0 MiB allocation reported by mallinfo(arena+hblkhd)
         23049 MiB available memory on the node where the printing process lives
------------------
     ethr =  1.00E-06,  avg # of iterations = 12.2

     total cpu time spent up to now is       57.5 secs

     total energy              =     -95.96392491 Ry
     estimated scf accuracy    <       0.24027144 Ry

     iteration #  2     ecut=    60.00 Ry     beta= 0.40
     Davidson diagonalization with overlap

---- Real-time Memory Report at c_bands before calling an iterative solver
            56 MiB given to the printing process from OS
             0 MiB allocation reported by mallinfo(arena+hblkhd)
         23043 MiB available memory on the node where the printing process lives
------------------
     ethr =  7.51E-04,  avg # of iterations =  3.0

     total cpu time spent up to now is       61.4 secs

     total energy              =     -96.24411833 Ry
     estimated scf accuracy    <       0.27122952 Ry

     iteration #  3     ecut=    60.00 Ry     beta= 0.40
     Davidson diagonalization with overlap

---- Real-time Memory Report at c_bands before calling an iterative solver
            56 MiB given to the printing process from OS
             0 MiB allocation reported by mallinfo(arena+hblkhd)
         23044 MiB available memory on the node where the printing process lives
------------------
     ethr =  7.51E-04,  avg # of iterations =  1.0

     total cpu time spent up to now is       63.8 secs

     total energy              =     -96.22246281 Ry
     estimated scf accuracy    <       0.08876238 Ry

     iteration #  4     ecut=    60.00 Ry     beta= 0.40
     Davidson diagonalization with overlap

---- Real-time Memory Report at c_bands before calling an iterative solver
            56 MiB given to the printing process from OS
             0 MiB allocation reported by mallinfo(arena+hblkhd)
         23044 MiB available memory on the node where the printing process lives
------------------
     ethr =  2.77E-04,  avg # of iterations =  2.0

     total cpu time spent up to now is       66.7 secs

     total energy              =     -96.22531381 Ry
     estimated scf accuracy    <       0.00949796 Ry

     iteration #  5     ecut=    60.00 Ry     beta= 0.40
     Davidson diagonalization with overlap

---- Real-time Memory Report at c_bands before calling an iterative solver
            56 MiB given to the printing process from OS
             0 MiB allocation reported by mallinfo(arena+hblkhd)
         23043 MiB available memory on the node where the printing process lives
------------------
     ethr =  2.97E-05,  avg # of iterations =  3.0

     total cpu time spent up to now is       70.2 secs

     total energy              =     -96.22955833 Ry
     estimated scf accuracy    <       0.00208634 Ry

     iteration #  6     ecut=    60.00 Ry     beta= 0.40
     Davidson diagonalization with overlap

---- Real-time Memory Report at c_bands before calling an iterative solver
            56 MiB given to the printing process from OS
             0 MiB allocation reported by mallinfo(arena+hblkhd)
         23043 MiB available memory on the node where the printing process lives
------------------
     ethr =  6.52E-06,  avg # of iterations =  2.1

     total cpu time spent up to now is       72.8 secs

     total energy              =     -96.22865705 Ry
     estimated scf accuracy    <       0.00216205 Ry

     iteration #  7     ecut=    60.00 Ry     beta= 0.40
     Davidson diagonalization with overlap

---- Real-time Memory Report at c_bands before calling an iterative solver
            56 MiB given to the printing process from OS
             0 MiB allocation reported by mallinfo(arena+hblkhd)
         23037 MiB available memory on the node where the printing process lives
------------------
     ethr =  6.52E-06,  avg # of iterations =  2.2

     total cpu time spent up to now is       75.8 secs

     total energy              =     -96.22888306 Ry
     estimated scf accuracy    <       0.00011150 Ry

     iteration #  8     ecut=    60.00 Ry     beta= 0.40
     Davidson diagonalization with overlap

---- Real-time Memory Report at c_bands before calling an iterative solver
            56 MiB given to the printing process from OS
             0 MiB allocation reported by mallinfo(arena+hblkhd)
         23035 MiB available memory on the node where the printing process lives
------------------
     ethr =  3.48E-07,  avg # of iterations =  3.5

     total cpu time spent up to now is       78.6 secs

     total energy              =     -96.22887770 Ry
     estimated scf accuracy    <       0.00003904 Ry

     iteration #  9     ecut=    60.00 Ry     beta= 0.40
     Davidson diagonalization with overlap

---- Real-time Memory Report at c_bands before calling an iterative solver
            56 MiB given to the printing process from OS
             0 MiB allocation reported by mallinfo(arena+hblkhd)
         23035 MiB available memory on the node where the printing process lives
------------------
     ethr =  1.22E-07,  avg # of iterations =  2.0

     total cpu time spent up to now is       81.7 secs

     total energy              =     -96.22888125 Ry
     estimated scf accuracy    <       0.00000335 Ry

     iteration # 10     ecut=    60.00 Ry     beta= 0.40
     Davidson diagonalization with overlap

---- Real-time Memory Report at c_bands before calling an iterative solver
            56 MiB given to the printing process from OS
             0 MiB allocation reported by mallinfo(arena+hblkhd)
         23035 MiB available memory on the node where the printing process lives
------------------
     ethr =  1.05E-08,  avg # of iterations =  2.0

     total cpu time spent up to now is       85.0 secs

     total energy              =     -96.22888213 Ry
     estimated scf accuracy    <       0.00000003 Ry

     iteration # 11     ecut=    60.00 Ry     beta= 0.40
     Davidson diagonalization with overlap

---- Real-time Memory Report at c_bands before calling an iterative solver
            57 MiB given to the printing process from OS
             0 MiB allocation reported by mallinfo(arena+hblkhd)
         23035 MiB available memory on the node where the printing process lives
------------------
     ethr =  8.80E-11,  avg # of iterations =  2.1

     total cpu time spent up to now is       88.2 secs

     total energy              =     -96.22888211 Ry
     estimated scf accuracy    <       0.00000004 Ry

     iteration # 12     ecut=    60.00 Ry     beta= 0.40
     Davidson diagonalization with overlap

---- Real-time Memory Report at c_bands before calling an iterative solver
            57 MiB given to the printing process from OS
             0 MiB allocation reported by mallinfo(arena+hblkhd)
         23035 MiB available memory on the node where the printing process lives
------------------
     ethr =  8.80E-11,  avg # of iterations =  2.0

     total cpu time spent up to now is       91.5 secs

     total energy              =     -96.22888212 Ry
     estimated scf accuracy    <       0.00000001 Ry

     iteration # 13     ecut=    60.00 Ry     beta= 0.40
     Davidson diagonalization with overlap

---- Real-time Memory Report at c_bands before calling an iterative solver
            57 MiB given to the printing process from OS
             0 MiB allocation reported by mallinfo(arena+hblkhd)
         23035 MiB available memory on the node where the printing process lives
------------------
     ethr =  3.26E-11,  avg # of iterations =  1.0

     total cpu time spent up to now is       93.9 secs

     total energy              =     -96.22888212 Ry
     estimated scf accuracy    <          6.2E-09 Ry

     iteration # 14     ecut=    60.00 Ry     beta= 0.40
     Davidson diagonalization with overlap

---- Real-time Memory Report at c_bands before calling an iterative solver
            57 MiB given to the printing process from OS
             0 MiB allocation reported by mallinfo(arena+hblkhd)
         23035 MiB available memory on the node where the printing process lives
------------------
     ethr =  1.94E-11,  avg # of iterations =  2.0

     total cpu time spent up to now is       97.0 secs

     End of self-consistent calculation

          k = 0.0000 0.0000 0.0000 (  7249 PWs)   bands (ev):

   -17.3593 -16.6610 -16.6610 -16.6610  -7.5572  -7.5572  -7.5572  -6.6965
    -6.6965  -6.4575  -6.4575  -6.4575  -2.1492  -2.1492  -2.1492  -1.5936
     2.8621   6.1398   6.1398   6.1398

     occupation numbers 
     1.0000   1.0000   1.0000   1.0000   1.0000   1.0000   1.0000   1.0000
     1.0000   1.0000   1.0000   1.0000   1.0000   1.0000   1.0000   1.0000
     0.0000   0.0000   0.0000   0.0000

          k = 0.0000 0.0000 0.1453 (  7296 PWs)   bands (ev):

   -17.3304 -16.7325 -16.6568 -16.6257  -7.5744  -7.5512  -7.4760  -6.7364
    -6.6735  -6.5776  -6.4819  -6.3787  -2.2565  -2.2067  -2.0445  -1.6178
     3.0716   5.9642   6.3115   6.3865

     occupation numbers 
     1.0000   1.0000   1.0000   1.0000   1.0000   1.0000   1.0000   1.0000
     1.0000   1.0000   1.0000   1.0000   1.0000   1.0000   1.0000   1.0000
     0.0000   0.0000   0.0000   0.0000

          k = 0.0000 0.0000 0.2907 (  7328 PWs)   bands (ev):

   -17.2479 -16.8435 -16.6456 -16.6152  -7.5499  -7.5353  -7.3322  -6.8403
    -6.6894  -6.6246  -6.5417  -6.3659  -2.3506  -2.3208  -1.9493  -1.6846
     3.6315   5.7048   6.6843   6.7560

     occupation numbers 
     1.0000   1.0000   1.0000   1.0000   1.0000   1.0000   1.0000   1.0000
     1.0000   1.0000   1.0000   1.0000   1.0000   1.0000   1.0000   1.0000
     0.0000   0.0000   0.0000   0.0000

          k = 0.0000 0.0000 0.4360 (  7344 PWs)   bands (ev):

   -17.1250 -16.9819 -16.6314 -16.6194  -7.5215  -7.5188  -7.1539  -6.9829
    -6.7333  -6.6815  -6.4973  -6.4146  -2.4077  -2.4008  -1.8611  -1.7723
     4.3864   5.1484   7.0261   7.1673

     occupation numbers 
     1.0000   1.0000   1.0000   1.0000   1.0000   1.0000   1.0000   1.0000
     1.0000   1.0000   1.0000   1.0000   1.0000   1.0000   1.0000   1.0000
     0.0000   0.0000   0.0000   0.0000

          k = 0.0000 0.1453 0.1453 (  7331 PWs)   bands (ev):

   -17.3025 -16.7562 -16.6721 -16.6170  -7.5604  -7.5530  -7.4341  -6.7542
    -6.6926  -6.5770  -6.5514  -6.3410  -2.2875  -2.2629  -2.0001  -1.6401
     3.2643   5.9771   6.3356   6.5757

     occupation numbers 
     1.0000   1.0000   1.0000   1.0000   1.0000   1.0000   1.0000   1.0000
     1.0000   1.0000   1.0000   1.0000   1.0000   1.0000   1.0000   1.0000
     0.0000   0.0000   0.0000   0.0000

          k = 0.0000 0.1453 0.2907 (  7325 PWs)   bands (ev):

   -17.2233 -16.8437 -16.6686 -16.6179  -7.5486  -7.5340  -7.3205  -6.8235
    -6.7614  -6.6337  -6.5428  -6.3310  -2.3541  -2.3508  -1.9268  -1.6996
     3.7879   5.8243   6.5012   6.9833

     occupation numbers 
     1.0000   1.0000   1.0000   1.0000   1.0000   1.0000   1.0000   1.0000
     1.0000   1.0000   1.0000   1.0000   1.0000   1.0000   1.0000   1.0000
     0.0000   0.0000   0.0000   0.0000

          k = 0.0000 0.1453 0.4360 (  7354 PWs)   bands (ev):

   -17.1058 -16.9706 -16.6506 -16.6311  -7.5348  -7.5237  -7.1574  -6.9760
    -6.7770  -6.7156  -6.4600  -6.3772  -2.4079  -2.4026  -1.8528  -1.7761
     4.5122   5.2683   6.8585   7.1884

     occupation numbers 
     1.0000   1.0000   1.0000   1.0000   1.0000   1.0000   1.0000   1.0000
     1.0000   1.0000   1.0000   1.0000   1.0000   1.0000   1.0000   1.0000
     0.0000   0.0000   0.0000   0.0000

          k = 0.0000 0.2907 0.2907 (  7349 PWs)   bands (ev):

   -17.1540 -16.8658 -16.7013 -16.6355  -7.5527  -7.5168  -7.2960  -6.9033
    -6.7955  -6.6410  -6.5080  -6.3194  -2.3995  -2.3652  -1.8850  -1.7379
     4.2230   5.9596   6.4150   7.2255

     occupation numbers 
     1.0000   1.0000   1.0000   1.0000   1.0000   1.0000   1.0000   1.0000
     1.0000   1.0000   1.0000   1.0000   1.0000   1.0000   1.0000   1.0000
     0.0000   0.0000   0.0000   0.0000

          k = 0.0000 0.2907 0.4360 (  7340 PWs)   bands (ev):

   -17.0534 -16.9450 -16.6953 -16.6654  -7.5458  -7.5301  -7.2012  -7.0559
    -6.7610  -6.6929  -6.4247  -6.3516  -2.4123  -2.3962  -1.8364  -1.7866
     4.8651   5.5944   6.4927   6.9676

     occupation numbers 
     1.0000   1.0000   1.0000   1.0000   1.0000   1.0000   1.0000   1.0000
     1.0000   1.0000   1.0000   1.0000   1.0000   1.0000   1.0000   1.0000
     0.0000   0.0000   0.0000   0.0000

          k = 0.0000 0.4360 0.4360 (  7349 PWs)   bands (ev):

   -16.9851 -16.9381 -16.7278 -16.7087  -7.5383  -7.5261  -7.2411  -7.1835
    -6.6733  -6.6356  -6.4190  -6.3814  -2.4053  -2.3959  -1.8197  -1.8021
     5.3785   5.9253   6.0913   6.5392

     occupation numbers 
     1.0000   1.0000   1.0000   1.0000   1.0000   1.0000   1.0000   1.0000
     1.0000   1.0000   1.0000   1.0000   1.0000   1.0000   1.0000   1.0000
     0.0000   0.0000   0.0000   0.0000

          k = 0.1453 0.1453 0.1453 (  7349 PWs)   bands (ev):

   -17.2757 -16.7713 -16.6859 -16.6170  -7.5597  -7.5445  -7.4083  -6.7712
    -6.6848  -6.6501  -6.5447  -6.3149  -2.3079  -2.3020  -1.9684  -1.6607
     3.4410   5.9992   6.3995   6.6983

     occupation numbers 
     1.0000   1.0000   1.0000   1.0000   1.0000   1.0000   1.0000   1.0000
     1.0000   1.0000   1.0000   1.0000   1.0000   1.0000   1.0000   1.0000
     0.0000   0.0000   0.0000   0.0000

          k = 0.1453 0.1453 0.2907 (  7322 PWs)   bands (ev):

   -17.1997 -16.8429 -16.6862 -16.6254  -7.5621  -7.5246  -7.3312  -6.8397
    -6.7787  -6.6471  -6.5199  -6.3077  -2.3772  -2.3425  -1.9107  -1.7142
     3.9270   5.8716   6.5781   7.0259

     occupation numbers 
     1.0000   1.0000   1.0000   1.0000   1.0000   1.0000   1.0000   1.0000
     1.0000   1.0000   1.0000   1.0000   1.0000   1.0000   1.0000   1.0000
     0.0000   0.0000   0.0000   0.0000

          k = 0.1453 0.1453 0.4360 (  7345 PWs)   bands (ev):

   -17.0875 -16.9596 -16.6669 -16.6437  -7.5512  -7.5301  -7.1988  -7.0230
    -6.7533  -6.6835  -6.4426  -6.3559  -2.4074  -2.3879  -1.8489  -1.7820
     4.6119   5.3396   6.8964   7.2360

     occupation numbers 
     1.0000   1.0000   1.0000   1.0000   1.0000   1.0000   1.0000   1.0000
     1.0000   1.0000   1.0000   1.0000   1.0000   1.0000   1.0000   1.0000
     0.0000   0.0000   0.0000   0.0000

          k = 0.1453 0.2907 0.2907 (  7354 PWs)   bands (ev):

   -17.1334 -16.8612 -16.7146 -16.6467  -7.5724  -7.5302  -7.3314  -6.9676
    -6.7653  -6.6093  -6.4811  -6.2900  -2.3973  -2.3488  -1.8767  -1.7513
     4.3235   5.9856   6.4404   7.1900

     occupation numbers 
     1.0000   1.0000   1.0000   1.0000   1.0000   1.0000   1.0000   1.0000
     1.0000   1.0000   1.0000   1.0000   1.0000   1.0000   1.0000   1.0000
     0.0000   0.0000   0.0000   0.0000

          k = 0.1453 0.2907 0.4360 (  7349 PWs)   bands (ev):

   -17.0375 -16.9346 -16.7074 -16.6774  -7.5717  -7.5532  -7.2675  -7.1341
    -6.6990  -6.6288  -6.4000  -6.3223  -2.3926  -2.3696  -1.8386  -1.7963
     4.9192   5.6093   6.4783   6.8740

     occupation numbers 
     1.0000   1.0000   1.0000   1.0000   1.0000   1.0000   1.0000   1.0000
     1.0000   1.0000   1.0000   1.0000   1.0000   1.0000   1.0000   1.0000
     0.0000   0.0000   0.0000   0.0000

          k = 0.1453 0.4360 0.4360 (  7329 PWs)   bands (ev):

   -16.9721 -16.9272 -16.7379 -16.7191  -7.5715  -7.5591  -7.3185  -7.2645
    -6.6031  -6.5629  -6.3852  -6.3438  -2.3702  -2.3587  -1.8290  -1.8145
     5.3805   5.8947   6.0322   6.4216

     occupation numbers 
     1.0000   1.0000   1.0000   1.0000   1.0000   1.0000   1.0000   1.0000
     1.0000   1.0000   1.0000   1.0000   1.0000   1.0000   1.0000   1.0000
     0.0000   0.0000   0.0000   0.0000

          k = 0.2907 0.2907 0.2907 (  7331 PWs)   bands (ev):

   -17.0757 -16.8617 -16.7421 -16.6743  -7.5969  -7.5687  -7.3907  -7.1253
    -6.6823  -6.5139  -6.4449  -6.2575  -2.3763  -2.3192  -1.8624  -1.7859
     4.6208   6.0181   6.4066   6.7025

     occupation numbers 
     1.0000   1.0000   1.0000   1.0000   1.0000   1.0000   1.0000   1.0000
     1.0000   1.0000   1.0000   1.0000   1.0000   1.0000   1.0000   1.0000
     0.0000   0.0000   0.0000   0.0000

          k = 0.2907 0.2907 0.4360 (  7361 PWs)   bands (ev):

   -16.9938 -16.9098 -16.7398 -16.7089  -7.6103  -7.5989  -7.3881  -7.2865
    -6.5805  -6.5037  -6.3603  -6.2793  -2.3367  -2.3096  -1.8491  -1.8245
     5.0941   5.6769   6.3272   6.4822

     occupation numbers 
     1.0000   1.0000   1.0000   1.0000   1.0000   1.0000   1.0000   1.0000
     1.0000   1.0000   1.0000   1.0000   1.0000   1.0000   1.0000   1.0000
     0.0000   0.0000   0.0000   0.0000

          k = 0.2907 0.4360 0.4360 (  7346 PWs)   bands (ev):

   -16.9365 -16.8980 -16.7664 -16.7476  -7.6274  -7.6203  -7.4617  -7.4185
    -6.4725  -6.4265  -6.3263  -6.2796  -2.2747  -2.2616  -1.8642  -1.8573
     5.4123   5.8193   5.8970   6.1151

     occupation numbers 
     1.0000   1.0000   1.0000   1.0000   1.0000   1.0000   1.0000   1.0000
     1.0000   1.0000   1.0000   1.0000   1.0000   1.0000   1.0000   1.0000
     0.0000   0.0000   0.0000   0.0000

          k = 0.4360 0.4360 0.4360 (  7355 PWs)   bands (ev):

   -16.8893 -16.8673 -16.8002 -16.7855  -7.6521  -7.6469  -7.5657  -7.5441
    -6.3643  -6.3271  -6.2950  -6.2578  -2.1613  -2.1534  -1.9252  -1.9250
     5.5313   5.7521   5.7811   5.7875

     occupation numbers 
     1.0000   1.0000   1.0000   1.0000   1.0000   1.0000   1.0000   1.0000
     1.0000   1.0000   1.0000   1.0000   1.0000   1.0000   1.0000   1.0000
     0.0000   0.0000   0.0000   0.0000

          k = 0.0000 0.2907 0.1453 (  7325 PWs)   bands (ev):

   -17.2233 -16.8437 -16.6686 -16.6179  -7.5540  -7.5229  -7.3294  -6.8473
    -6.7252  -6.6288  -6.5508  -6.3373  -2.3671  -2.3357  -1.9288  -1.6995
     3.7866   5.7769   6.7118   6.8440

     occupation numbers 
     1.0000   1.0000   1.0000   1.0000   1.0000   1.0000   1.0000   1.0000
     1.0000   1.0000   1.0000   1.0000   1.0000   1.0000   1.0000   1.0000
     0.0000   0.0000   0.0000   0.0000

          k = 0.0000 0.4360 0.1453 (  7354 PWs)   bands (ev):

   -17.1058 -16.9706 -16.6506 -16.6311  -7.5346  -7.5146  -7.1788  -7.0023
    -6.7419  -6.6758  -6.4820  -6.3923  -2.4121  -2.3949  -1.8549  -1.7768
     4.5041   5.2404   7.1447   7.1767

     occupation numbers 
     1.0000   1.0000   1.0000   1.0000   1.0000   1.0000   1.0000   1.0000
     1.0000   1.0000   1.0000   1.0000   1.0000   1.0000   1.0000   1.0000
     0.0000   0.0000   0.0000   0.0000

          k = 0.0000 0.4360 0.2907 (  7340 PWs)   bands (ev):

   -17.0534 -16.9450 -16.6953 -16.6654  -7.5432  -7.5188  -7.2266  -7.0818
    -6.7248  -6.6465  -6.4533  -6.3691  -2.4123  -2.3914  -1.8390  -1.7878
     4.8450   5.5104   6.7935   7.1817

     occupation numbers 
     1.0000   1.0000   1.0000   1.0000   1.0000   1.0000   1.0000   1.0000
     1.0000   1.0000   1.0000   1.0000   1.0000   1.0000   1.0000   1.0000
     0.0000   0.0000   0.0000   0.0000

          k =-0.1453 0.4360 0.2907 (  7349 PWs)   bands (ev):

   -17.0375 -16.9346 -16.7074 -16.6774  -7.5703  -7.5473  -7.2786  -7.1438
    -6.6839  -6.6071  -6.4152  -6.3309  -2.3922  -2.3673  -1.8401  -1.7970
     4.9065   5.5552   6.6576   6.9681

     occupation numbers 
     1.0000   1.0000   1.0000   1.0000   1.0000   1.0000   1.0000   1.0000
     1.0000   1.0000   1.0000   1.0000   1.0000   1.0000   1.0000   1.0000
     0.0000   0.0000   0.0000   0.0000

     the Fermi energy is     0.2999 ev

!    total energy              =     -96.22888212 Ry
     estimated scf accuracy    <          1.5E-10 Ry
     smearing contrib. (-TS)   =       0.00000000 Ry
     internal energy E=F+TS    =     -96.22888212 Ry

     The total energy is F=E-TS. E is the sum of the following terms:
     one-electron contribution =     -60.71686915 Ry
     hartree contribution      =      39.88136444 Ry
     xc contribution           =     -31.86523653 Ry
     ewald contribution        =     -43.52814088 Ry

     convergence has been achieved in  14 iterations

     Forces acting on atoms (cartesian axes, Ry/au):

     atom    1 type  2   force =    -0.01461584   -0.01461584   -0.01461584
     atom    2 type  2   force =     0.01461584    0.01461584   -0.01461584
     atom    3 type  2   force =     0.01461584   -0.01461584    0.01461584
     atom    4 type  2   force =    -0.01461584    0.01461584    0.01461584
     atom    5 type  1   force =     0.02157531    0.00987057   -0.01590422
     atom    6 type  1   force =    -0.02157531   -0.00987057   -0.01590422
     atom    7 type  1   force =    -0.02157531    0.00987057    0.01590422
     atom    8 type  1   force =     0.02157531   -0.00987057    0.01590422
     atom    9 type  1   force =    -0.01590422    0.02157531    0.00987057
     atom   10 type  1   force =    -0.01590422   -0.02157531   -0.00987057
     atom   11 type  1   force =     0.01590422   -0.02157531    0.00987057
     atom   12 type  1   force =     0.01590422    0.02157531   -0.00987057
     atom   13 type  1   force =     0.00987057   -0.01590422    0.02157531
     atom   14 type  1   force =    -0.00987057   -0.01590422   -0.02157531
     atom   15 type  1   force =     0.00987057    0.01590422   -0.02157531
     atom   16 type  1   force =    -0.00987057    0.01590422    0.02157531
     The non-local contrib.  to forces
     atom    1 type  2   force =     0.68941830    0.68941830    0.68941830
     atom    2 type  2   force =    -0.68941830   -0.68941830    0.68941830
     atom    3 type  2   force =    -0.68941830    0.68941830   -0.68941830
     atom    4 type  2   force =     0.68941830   -0.68941830   -0.68941830
     atom    5 type  1   force =    -0.07621906   -0.03558834    0.05186419
     atom    6 type  1   force =     0.07621906    0.03558834    0.05186419
     atom    7 type  1   force =     0.07621906   -0.03558834   -0.05186419
     atom    8 type  1   force =    -0.07621906    0.03558834   -0.05186419
     atom    9 type  1   force =     0.05186419   -0.07621906   -0.03558834
     atom   10 type  1   force =     0.05186419    0.07621906    0.03558834
     atom   11 type  1   force =    -0.05186419    0.07621906   -0.03558834
     atom   12 type  1   force =    -0.05186419   -0.07621906    0.03558834
     atom   13 type  1   force =    -0.03558834    0.05186419   -0.07621906
     atom   14 type  1   force =     0.03558834    0.05186419    0.07621906
     atom   15 type  1   force =    -0.03558834   -0.05186419    0.07621906
     atom   16 type  1   force =     0.03558834   -0.05186419   -0.07621906
     The ionic contribution  to forces
     atom    1 type  2   force =    -1.16133388   -1.16133388   -1.16133388
     atom    2 type  2   force =     1.16133388    1.16133388   -1.16133388
     atom    3 type  2   force =     1.16133388   -1.16133388    1.16133388
     atom    4 type  2   force =    -1.16133388    1.16133388    1.16133388
     atom    5 type  1   force =     1.92605124    0.99766840   -1.21189969
     atom    6 type  1   force =    -1.92605124   -0.99766840   -1.21189969
     atom    7 type  1   force =    -1.92605124    0.99766840    1.21189969
     atom    8 type  1   force =     1.92605124   -0.99766840    1.21189969
     atom    9 type  1   force =    -1.21189969    1.92605124    0.99766840
     atom   10 type  1   force =    -1.21189969   -1.92605124   -0.99766840
     atom   11 type  1   force =     1.21189969   -1.92605124    0.99766840
     atom   12 type  1   force =     1.21189969    1.92605124   -0.99766840
     atom   13 type  1   force =     0.99766840   -1.21189969    1.92605124
     atom   14 type  1   force =    -0.99766840   -1.21189969   -1.92605124
     atom   15 type  1   force =     0.99766840    1.21189969   -1.92605124
     atom   16 type  1   force =    -0.99766840    1.21189969    1.92605124
     The local contribution  to forces
     atom    1 type  2   force =     0.46656053    0.46656053    0.46656053
     atom    2 type  2   force =    -0.46656053   -0.46656053    0.46656053
     atom    3 type  2   force =    -0.46656053    0.46656053   -0.46656053
     atom    4 type  2   force =     0.46656053   -0.46656053   -0.46656053
     atom    5 type  1   force =    -1.82825765   -0.95220989    1.14413184
     atom    6 type  1   force =     1.82825765    0.95220989    1.14413184
     atom    7 type  1   force =     1.82825765   -0.95220989   -1.14413184
     atom    8 type  1   force =    -1.82825765    0.95220989   -1.14413184
     atom    9 type  1   force =     1.14413184   -1.82825765   -0.95220989
     atom   10 type  1   force =     1.14413184    1.82825765    0.95220989
     atom   11 type  1   force =    -1.14413184    1.82825765   -0.95220989
     atom   12 type  1   force =    -1.14413184   -1.82825765    0.95220989
     atom   13 type  1   force =    -0.95220989    1.14413184   -1.82825765
     atom   14 type  1   force =     0.95220989    1.14413184    1.82825765
     atom   15 type  1   force =    -0.95220989   -1.14413184    1.82825765
     atom   16 type  1   force =     0.95220989   -1.14413184   -1.82825765
     The core correction contribution to forces
     atom    1 type  2   force =    -0.00926232   -0.00926232   -0.00926232
     atom    2 type  2   force =     0.00926232    0.00926232   -0.00926232
     atom    3 type  2   force =     0.00926232   -0.00926232    0.00926232
     atom    4 type  2   force =    -0.00926232    0.00926232    0.00926232
     atom    5 type  1   force =     0.00000000    0.00000000    0.00000000
     atom    6 type  1   force =     0.00000000    0.00000000    0.00000000
     atom    7 type  1   force =     0.00000000    0.00000000    0.00000000
     atom    8 type  1   force =     0.00000000    0.00000000    0.00000000
     atom    9 type  1   force =     0.00000000    0.00000000    0.00000000
     atom   10 type  1   force =     0.00000000    0.00000000    0.00000000
     atom   11 type  1   force =     0.00000000    0.00000000    0.00000000
     atom   12 type  1   force =     0.00000000    0.00000000    0.00000000
     atom   13 type  1   force =     0.00000000    0.00000000    0.00000000
     atom   14 type  1   force =     0.00000000    0.00000000    0.00000000
     atom   15 type  1   force =     0.00000000    0.00000000    0.00000000
     atom   16 type  1   force =     0.00000000    0.00000000    0.00000000
     The Hubbard contrib.    to forces
     atom    1 type  2   force =     0.00000000    0.00000000    0.00000000
     atom    2 type  2   force =     0.00000000    0.00000000    0.00000000
     atom    3 type  2   force =     0.00000000    0.00000000    0.00000000
     atom    4 type  2   force =     0.00000000    0.00000000    0.00000000
     atom    5 type  1   force =     0.00000000    0.00000000    0.00000000
     atom    6 type  1   force =     0.00000000    0.00000000    0.00000000
     atom    7 type  1   force =     0.00000000    0.00000000    0.00000000
     atom    8 type  1   force =     0.00000000    0.00000000    0.00000000
     atom    9 type  1   force =     0.00000000    0.00000000    0.00000000
     atom   10 type  1   force =     0.00000000    0.00000000    0.00000000
     atom   11 type  1   force =     0.00000000    0.00000000    0.00000000
     atom   12 type  1   force =     0.00000000    0.00000000    0.00000000
     atom   13 type  1   force =     0.00000000    0.00000000    0.00000000
     atom   14 type  1   force =     0.00000000    0.00000000    0.00000000
     atom   15 type  1   force =     0.00000000    0.00000000    0.00000000
     atom   16 type  1   force =     0.00000000    0.00000000    0.00000000
     The SCF correction term to forces
     atom    1 type  2   force =     0.00000152    0.00000152    0.00000152
     atom    2 type  2   force =    -0.00000152   -0.00000152    0.00000152
     atom    3 type  2   force =    -0.00000152    0.00000152   -0.00000152
     atom    4 type  2   force =     0.00000152   -0.00000152   -0.00000152
     atom    5 type  1   force =     0.00000078    0.00000039   -0.00000057
     atom    6 type  1   force =    -0.00000078   -0.00000039   -0.00000057
     atom    7 type  1   force =    -0.00000078    0.00000039    0.00000057
     atom    8 type  1   force =     0.00000078   -0.00000039    0.00000057
     atom    9 type  1   force =    -0.00000057    0.00000078    0.00000039
     atom   10 type  1   force =    -0.00000057   -0.00000078   -0.00000039
     atom   11 type  1   force =     0.00000057   -0.00000078    0.00000039
     atom   12 type  1   force =     0.00000057    0.00000078   -0.00000039
     atom   13 type  1   force =     0.00000039   -0.00000057    0.00000078
     atom   14 type  1   force =    -0.00000039   -0.00000057   -0.00000078
     atom   15 type  1   force =     0.00000039    0.00000057   -0.00000078
[...]
    -4.0261  -3.8904  -3.7165  -3.6193   0.1430   0.2235   0.6555   0.6834
     9.3328   9.6653  10.0250  10.2641

     occupation numbers 
     1.0000   1.0000   1.0000   1.0000   1.0000   1.0000   1.0000   1.0000
     1.0000   1.0000   1.0000   1.0000   1.0000   1.0000   1.0000   1.0000
     0.0000   0.0000   0.0000   0.0000

          k = 0.3340 0.3340 0.3340 (  4587 PWs)   bands (ev):

   -14.9257 -14.1948 -14.1266 -14.0697  -5.9039  -5.7783  -5.6120  -5.0838
    -4.2559  -3.9664  -3.5550  -3.3976  -0.0390   0.3980   0.6739   0.7700
     8.4306   9.0660   9.7735  10.1970

     occupation numbers 
     1.0000   1.0000   1.0000   1.0000   1.0000   1.0000   1.0000   1.0000
     1.0000   1.0000   1.0000   1.0000   1.0000   1.0000   1.0000   1.0000
     0.0000   0.0000   0.0000   0.0000

          k = 0.3340 0.3340 0.5010 (  4591 PWs)   bands (ev):

   -14.6817 -14.4044 -14.1212 -14.0959  -5.9502  -5.8910  -5.6771  -5.4481
    -3.9742  -3.8359  -3.4902  -3.4045   0.1401   0.3383   0.7137   0.7608
     8.7943   9.2101   9.8080  10.0409

     occupation numbers 
     1.0000   1.0000   1.0000   1.0000   1.0000   1.0000   1.0000   1.0000
     1.0000   1.0000   1.0000   1.0000   1.0000   1.0000   1.0000   1.0000
     0.0000   0.0000   0.0000   0.0000

          k = 0.3340 0.5010 0.5010 (  4604 PWs)   bands (ev):

   -14.4998 -14.3356 -14.2496 -14.1820  -6.0302  -5.9686  -5.9108  -5.7707
    -3.6872  -3.5990  -3.4539  -3.3857   0.3263   0.4256   0.7519   0.7824
     8.9125   9.2253   9.3734   9.5303

     occupation numbers 
     1.0000   1.0000   1.0000   1.0000   1.0000   1.0000   1.0000   1.0000
     1.0000   1.0000   1.0000   1.0000   1.0000   1.0000   1.0000   1.0000
     0.0000   0.0000   0.0000   0.0000

          k = 0.5010 0.5010 0.5010 (  4605 PWs)   bands (ev):

   -14.3876 -14.3003 -14.2670 -14.2466  -6.1655  -6.1529  -6.1338  -6.0567
    -3.4360  -3.3725  -3.3404  -3.2836   0.5515   0.6147   0.7918   0.8223
     8.7298   8.9116   8.9491   8.9775

     occupation numbers 
     1.0000   1.0000   1.0000   1.0000   1.0000   1.0000   1.0000   1.0000
     1.0000   1.0000   1.0000   1.0000   1.0000   1.0000   1.0000   1.0000
     0.0000   0.0000   0.0000   0.0000

          k = 0.0000 0.3340 0.1670 (  4596 PWs)   bands (ev):

   -15.3407 -14.2409 -13.9019 -13.8215  -5.6851  -5.6195  -5.3875  -4.7087
    -4.2473  -4.0745  -3.8906  -3.6511   0.0742   0.3334   0.5889   0.7126
     7.7210   8.3864   8.9788   9.1146

     occupation numbers 
     1.0000   1.0000   1.0000   1.0000   1.0000   1.0000   1.0000   1.0000
     1.0000   1.0000   1.0000   1.0000   1.0000   1.0000   1.0000   1.0000
     0.0000   0.0000   0.0000   0.0000

          k = 0.0000 0.5010 0.1670 (  4598 PWs)   bands (ev):

   -15.0177 -14.6275 -13.8681 -13.8389  -5.4938  -5.3873  -5.2422  -5.0059
    -4.3246  -4.1251  -3.9419  -3.7927   0.0177   0.1374   0.5422   0.6018
     8.5118   8.8431   9.6564   9.7853

     occupation numbers 
     1.0000   1.0000   1.0000   1.0000   1.0000   1.0000   1.0000   1.0000
     1.0000   1.0000   1.0000   1.0000   1.0000   1.0000   1.0000   1.0000
     0.0000   0.0000   0.0000   0.0000

          k = 0.0000 0.5010 0.3340 (  4581 PWs)   bands (ev):

   -14.8552 -14.5096 -14.0513 -13.9533  -5.5499  -5.4777  -5.2967  -5.0932
    -4.3494  -4.0535  -3.9186  -3.7225   0.0227   0.1601   0.5573   0.6369
     8.9573   9.2948  10.1444  10.3561

     occupation numbers 
     1.0000   1.0000   1.0000   1.0000   1.0000   1.0000   1.0000   1.0000
     1.0000   1.0000   1.0000   1.0000   1.0000   1.0000   1.0000   1.0000
     0.0000   0.0000   0.0000   0.0000

          k =-0.1670 0.5010 0.3340 (  4591 PWs)   bands (ev):

   -14.8095 -14.4809 -14.0659 -13.9926  -5.7380  -5.6458  -5.3984  -5.1363
    -4.2682  -4.0623  -3.6948  -3.5778   0.0351   0.2138   0.6221   0.6797
     8.8813   9.2551  10.1171  10.5433

     occupation numbers 
     1.0000   1.0000   1.0000   1.0000   1.0000   1.0000   1.0000   1.0000
     1.0000   1.0000   1.0000   1.0000   1.0000   1.0000   1.0000   1.0000
     0.0000   0.0000   0.0000   0.0000

     the Fermi energy is     5.1134 ev

!    total energy              =     -96.15762777 Ry
     estimated scf accuracy    <          3.0E-12 Ry
     smearing contrib. (-TS)   =      -0.00000000 Ry
     internal energy E=F+TS    =     -96.15762777 Ry

     The total energy is F=E-TS. E is the sum of the following terms:
     one-electron contribution =     -31.68590090 Ry
     hartree contribution      =      28.28933196 Ry
     xc contribution           =     -32.01855313 Ry
     ewald contribution        =     -60.74250570 Ry

     convergence has been achieved in  13 iterations

     Forces acting on atoms (cartesian axes, Ry/au):

     atom    1 type  2   force =    -0.00015259   -0.00015259   -0.00015259
     atom    2 type  2   force =     0.00015259    0.00015259   -0.00015259
     atom    3 type  2   force =     0.00015259   -0.00015259    0.00015259
     atom    4 type  2   force =    -0.00015259    0.00015259    0.00015259
     atom    5 type  1   force =     0.00021469    0.00001969   -0.00012039
     atom    6 type  1   force =    -0.00021469   -0.00001969   -0.00012039
     atom    7 type  1   force =    -0.00021469    0.00001969    0.00012039
     atom    8 type  1   force =     0.00021469   -0.00001969    0.00012039
     atom    9 type  1   force =    -0.00012039    0.00021469    0.00001969
     atom   10 type  1   force =    -0.00012039   -0.00021469   -0.00001969
     atom   11 type  1   force =     0.00012039   -0.00021469    0.00001969
     atom   12 type  1   force =     0.00012039    0.00021469   -0.00001969
     atom   13 type  1   force =     0.00001969   -0.00012039    0.00021469
     atom   14 type  1   force =    -0.00001969   -0.00012039   -0.00021469
     atom   15 type  1   force =     0.00001969    0.00012039   -0.00021469
     atom   16 type  1   force =    -0.00001969    0.00012039    0.00021469
     The non-local contrib.  to forces
     atom    1 type  2   force =     0.59794098    0.59794098    0.59794098
     atom    2 type  2   force =    -0.59794098   -0.59794098    0.59794098
     atom    3 type  2   force =    -0.59794098    0.59794098   -0.59794098
     atom    4 type  2   force =     0.59794098   -0.59794098   -0.59794098
     atom    5 type  1   force =    -0.08028232   -0.01623588    0.04650213
     atom    6 type  1   force =     0.08028232    0.01623588    0.04650213
     atom    7 type  1   force =     0.08028232   -0.01623588   -0.04650213
     atom    8 type  1   force =    -0.08028232    0.01623588   -0.04650213
     atom    9 type  1   force =     0.04650213   -0.08028232   -0.01623588
     atom   10 type  1   force =     0.04650213    0.08028232    0.01623588
     atom   11 type  1   force =    -0.04650213    0.08028232   -0.01623588
     atom   12 type  1   force =    -0.04650213   -0.08028232    0.01623588
     atom   13 type  1   force =    -0.01623588    0.04650213   -0.08028232
     atom   14 type  1   force =     0.01623588    0.04650213    0.08028232
     atom   15 type  1   force =    -0.01623588   -0.04650213    0.08028232
     atom   16 type  1   force =     0.01623588   -0.04650213   -0.08028232
     The ionic contribution  to forces
     atom    1 type  2   force =    -0.93458015   -0.93458015   -0.93458015
     atom    2 type  2   force =     0.93458015    0.93458015   -0.93458015
     atom    3 type  2   force =     0.93458015   -0.93458015    0.93458015
     atom    4 type  2   force =    -0.93458015    0.93458015    0.93458015
     atom    5 type  1   force =     1.89367897    0.39731258   -0.94574599
     atom    6 type  1   force =    -1.89367897   -0.39731258   -0.94574599
     atom    7 type  1   force =    -1.89367897    0.39731258    0.94574599
     atom    8 type  1   force =     1.89367897   -0.39731258    0.94574599
     atom    9 type  1   force =    -0.94574599    1.89367897    0.39731258
     atom   10 type  1   force =    -0.94574599   -1.89367897   -0.39731258
     atom   11 type  1   force =     0.94574599   -1.89367897    0.39731258
     atom   12 type  1   force =     0.94574599    1.89367897   -0.39731258
     atom   13 type  1   force =     0.39731258   -0.94574599    1.89367897
     atom   14 type  1   force =    -0.39731258   -0.94574599   -1.89367897
     atom   15 type  1   force =     0.39731258    0.94574599   -1.89367897
     atom   16 type  1   force =    -0.39731258    0.94574599    1.89367897
     The local contribution  to forces
     atom    1 type  2   force =     0.34476653    0.34476653    0.34476653
     atom    2 type  2   force =    -0.34476653   -0.34476653    0.34476653
     atom    3 type  2   force =    -0.34476653    0.34476653   -0.34476653
     atom    4 type  2   force =     0.34476653   -0.34476653   -0.34476653
     atom    5 type  1   force =    -1.81318179   -0.38105697    0.89912339
     atom    6 type  1   force =     1.81318179    0.38105697    0.89912339
     atom    7 type  1   force =     1.81318179   -0.38105697   -0.89912339
     atom    8 type  1   force =    -1.81318179    0.38105697   -0.89912339
     atom    9 type  1   force =     0.89912339   -1.81318179   -0.38105697
     atom   10 type  1   force =     0.89912339    1.81318179    0.38105697
     atom   11 type  1   force =    -0.89912339    1.81318179   -0.38105697
     atom   12 type  1   force =    -0.89912339   -1.81318179    0.38105697
     atom   13 type  1   force =    -0.38105697    0.89912339   -1.81318179
     atom   14 type  1   force =     0.38105697    0.89912339    1.81318179
     atom   15 type  1   force =    -0.38105697   -0.89912339    1.81318179
     atom   16 type  1   force =     0.38105697   -0.89912339   -1.81318179
     The core correction contribution to forces
     atom    1 type  2   force =    -0.00827981   -0.00827981   -0.00827981
     atom    2 type  2   force =     0.00827981    0.00827981   -0.00827981
     atom    3 type  2   force =     0.00827981   -0.00827981    0.00827981
     atom    4 type  2   force =    -0.00827981    0.00827981    0.00827981
     atom    5 type  1   force =     0.00000000    0.00000000    0.00000000
     atom    6 type  1   force =     0.00000000    0.00000000    0.00000000
     atom    7 type  1   force =     0.00000000    0.00000000    0.00000000
     atom    8 type  1   force =     0.00000000    0.00000000    0.00000000
     atom    9 type  1   force =     0.00000000    0.00000000    0.00000000
     atom   10 type  1   force =     0.00000000    0.00000000    0.00000000
     atom   11 type  1   force =     0.00000000    0.00000000    0.00000000
     atom   12 type  1   force =     0.00000000    0.00000000    0.00000000
     atom   13 type  1   force =     0.00000000    0.00000000    0.00000000
     atom   14 type  1   force =     0.00000000    0.00000000    0.00000000
     atom   15 type  1   force =     0.00000000    0.00000000    0.00000000
     atom   16 type  1   force =     0.00000000    0.00000000    0.00000000
     The Hubbard contrib.    to forces
     atom    1 type  2   force =     0.00000000    0.00000000    0.00000000
     atom    2 type  2   force =     0.00000000    0.00000000    0.00000000
     atom    3 type  2   force =     0.00000000    0.00000000    0.00000000
     atom    4 type  2   force =     0.00000000    0.00000000    0.00000000
     atom    5 type  1   force =     0.00000000    0.00000000    0.00000000
     atom    6 type  1   force =     0.00000000    0.00000000    0.00000000
     atom    7 type  1   force =     0.00000000    0.00000000    0.00000000
     atom    8 type  1   force =     0.00000000    0.00000000    0.00000000
     atom    9 type  1   force =     0.00000000    0.00000000    0.00000000
     atom   10 type  1   force =     0.00000000    0.00000000    0.00000000
     atom   11 type  1   force =     0.00000000    0.00000000    0.00000000
     atom   12 type  1   force =     0.00000000    0.00000000    0.00000000
     atom   13 type  1   force =     0.00000000    0.00000000    0.00000000
     atom   14 type  1   force =     0.00000000    0.00000000    0.00000000
     atom   15 type  1   force =     0.00000000    0.00000000    0.00000000
     atom   16 type  1   force =     0.00000000    0.00000000    0.00000000
     The SCF correction term to forces
     atom    1 type  2   force =    -0.00000016   -0.00000016   -0.00000016
     atom    2 type  2   force =     0.00000016    0.00000016   -0.00000016
     atom    3 type  2   force =     0.00000016   -0.00000016    0.00000016
     atom    4 type  2   force =    -0.00000016    0.00000016    0.00000016
     atom    5 type  1   force =    -0.00000017   -0.00000005    0.00000007
     atom    6 type  1   force =     0.00000017    0.00000005    0.00000007
     atom    7 type  1   force =     0.00000017   -0.00000005   -0.00000007
     atom    8 type  1   force =    -0.00000017    0.00000005   -0.00000007
     atom    9 type  1   force =     0.00000007   -0.00000017   -0.00000005
     atom   10 type  1   force =     0.00000007    0.00000017    0.00000005
     atom   11 type  1   force =    -0.00000007    0.00000017   -0.00000005
     atom   12 type  1   force =    -0.00000007   -0.00000017    0.00000005
     atom   13 type  1   force =    -0.00000005    0.00000007   -0.00000017
     atom   14 type  1   force =     0.00000005    0.00000007    0.00000017
     atom   15 type  1   force =    -0.00000005   -0.00000007    0.00000017
     atom   16 type  1   force =     0.00000005   -0.00000007   -0.00000017

     Total force =     0.001006     Total SCF correction =     0.000001


     Computing stress (Cartesian axis) and pressure

          total   stress  (Ry/bohr**3)                   (kbar)     P=       98.87
   0.00067209   0.00000000   0.00000000           98.87        0.00        0.00
   0.00000000   0.00067209   0.00000000            0.00       98.87        0.00
   0.00000000   0.00000000   0.00067209            0.00        0.00       98.87

     kinetic stress (kbar)  10355.15      0.00      0.00
                                0.00  10355.15      0.00
                                0.00      0.00  10355.15

     local   stress (kbar)  -5022.50      0.00     -0.00
                                0.00  -5022.50     -0.00
                               -0.00     -0.00  -5022.50

     nonloc. stress (kbar)    -58.76      0.00      0.00
                                0.00    -58.76      0.00
                                0.00      0.00    -58.76

     hartree stress (kbar)   2368.82      0.00      0.00
                                0.00   2368.82      0.00
                                0.00      0.00   2368.82

     exc-cor stress (kbar)  -1767.78     -0.00      0.00
                               -0.00  -1767.78      0.00
                                0.00      0.00  -1767.78

     corecor stress (kbar)   -689.75      0.00     -0.00
                                0.00   -689.75     -0.00
                               -0.00     -0.00   -689.75

     ewald   stress (kbar)  -5086.31     -0.00      0.00
                               -0.00  -5086.31      0.00
                                0.00      0.00  -5086.31

     hubbard stress (kbar)      0.00      0.00      0.00
                                0.00      0.00      0.00
                                0.00      0.00      0.00

     DFT-D   stress (kbar)      0.00      0.00      0.00
                                0.00      0.00      0.00
                                0.00      0.00      0.00

     XDM     stress (kbar)      0.00      0.00      0.00
                                0.00      0.00      0.00
                                0.00      0.00      0.00

     dft-nl  stress (kbar)      0.00      0.00      0.00
                                0.00      0.00      0.00
                                0.00      0.00      0.00

     TS-vdW  stress (kbar)      0.00      0.00      0.00
                                0.00      0.00      0.00
                                0.00      0.00      0.00

     MDB     stress (kbar)      0.00      0.00      0.00
                                0.00      0.00      0.00
                                0.00      0.00      0.00

     3D-RISM stress (kbar)      0.00      0.00      0.00
                                0.00      0.00      0.00
                                0.00      0.00      0.00


     Writing all to output data dir ./out/AC_Ph_1.save/

     init_run     :      7.00s CPU      7.08s WALL (       2 calls)
     electrons    :   1214.89s CPU   1234.25s WALL (      31 calls)
     update_pot   :     81.20s CPU     81.48s WALL (      29 calls)
     forces       :     65.15s CPU     65.64s WALL (      31 calls)
     stress       :    110.44s CPU    110.87s WALL (      31 calls)

     Called by init_run:
     wfcinit      :      2.18s CPU      2.22s WALL (       2 calls)
     wfcinit:atom :      0.03s CPU      0.03s WALL (      48 calls)
     wfcinit:wfcr :      2.06s CPU      2.10s WALL (      48 calls)
     potinit      :      1.91s CPU      1.92s WALL (       2 calls)
     hinit0       :      2.35s CPU      2.35s WALL (       2 calls)

     Called by electrons:
     c_bands      :   1020.51s CPU   1034.93s WALL (     375 calls)
     sum_band     :    154.22s CPU    157.26s WALL (     375 calls)
     v_of_rho     :     20.17s CPU     21.08s WALL (     402 calls)
     v_h          :      1.25s CPU      1.35s WALL (     402 calls)
     v_xc         :     21.86s CPU     22.78s WALL (     464 calls)
     newd         :     17.22s CPU     17.47s WALL (     402 calls)
     mix_rho      :      3.07s CPU      3.25s WALL (     375 calls)

     Called by c_bands:
     init_us_2    :      9.49s CPU      9.58s WALL (   19536 calls)
     init_us_2:cp :      9.39s CPU      9.52s WALL (   19536 calls)
     cegterg      :   1001.56s CPU   1015.61s WALL (    9000 calls)

     Called by sum_band:
     sum_band:wei :      0.05s CPU      0.05s WALL (     375 calls)
     sum_band:loo :    134.59s CPU    137.19s WALL (     375 calls)
     sum_band:buf :      1.06s CPU      1.07s WALL (    9000 calls)
     sum_band:ini :      4.28s CPU      4.31s WALL (    9000 calls)
     sum_band:cal :     43.90s CPU     44.77s WALL (    9000 calls)
     sum_band:bec :      0.32s CPU      0.32s WALL (    9000 calls)
     addusdens    :     15.17s CPU     15.27s WALL (     375 calls)
     addusd:skk   :      0.95s CPU      0.95s WALL (     750 calls)
     addusd:dgemm :      8.01s CPU      8.05s WALL (     750 calls)
     addusd:qvan2 :      4.44s CPU      4.46s WALL (     750 calls)

     Called by *egterg:
     cdiaghg      :     34.48s CPU     34.69s WALL (   29620 calls)
     cegterg:over :    116.33s CPU    117.66s WALL (   21412 calls)
     cegterg:upda :     28.47s CPU     28.61s WALL (   21412 calls)
     cegterg:last :     63.27s CPU     63.55s WALL (   18235 calls)
     h_psi        :    635.25s CPU    646.68s WALL (   30460 calls)
     s_psi        :     60.84s CPU     61.18s WALL (   30460 calls)
     g_psi        :      3.86s CPU      3.88s WALL (   21412 calls)

     Called by h_psi:
     h_psi:calbec :    121.12s CPU    123.68s WALL (   30460 calls)
     vloc_psi     :    450.64s CPU    459.22s WALL (   30460 calls)
     add_vuspsi   :     60.77s CPU     61.06s WALL (   30460 calls)

     General routines
     calbec       :    184.65s CPU    188.36s WALL (   43180 calls)
     fft          :     20.73s CPU     21.76s WALL (    5972 calls)
     ffts         :      0.86s CPU      0.89s WALL (     777 calls)
     fftw         :    488.98s CPU    497.47s WALL ( 1165642 calls)
     interpolate  :      1.61s CPU      1.68s WALL (     402 calls)

     Parallel routines

     PWSCF        :  24m42.37s CPU  25m 3.29s WALL


   This run was terminated on:   8:26: 8  14Dec2022            

=------------------------------------------------------------------------------=
   JOB DONE.
=------------------------------------------------------------------------------=
