
     Program PWSCF v.7.1 starts on 14Dec2022 at  8:38:15 

     This program is part of the open-source Quantum ESPRESSO suite
     for quantum simulation of materials; please cite
         "P. Giannozzi et al., J. Phys.:Condens. Matter 21 395502 (2009);
         "P. Giannozzi et al., J. Phys.:Condens. Matter 29 465901 (2017);
         "P. Giannozzi et al., J. Chem. Phys. 152 154105 (2020);
          URL http://www.quantum-espresso.org", 
     in publications or presentations arising from this work. More details at
     http://www.quantum-espresso.org/quote

     Parallel version (MPI), running on    14 processors

     MPI processes distributed on     1 nodes
     23455 MiB available memory on the printing compute node when the environment starts

     Reading input from pwrelax.in

     Current dimensions of program PWSCF are:
     Max number of different atomic species (ntypx) = 10
     Max number of k-points (npk) =  40000
     Max angular momentum in pseudopotentials (lmaxx) =  4

     File ./out/AC_Ph_1.update deleted, as requested

     File ./out/AC_Ph_1.bfgs deleted, as requested
     Message from routine setup:
     using ibrav=0 with symmetry is DISCOURAGED, use correct ibrav instead

     R & G space division:  proc/nbgrp/npool/nimage =      14
     Subspace diagonalization in iterative solution of the eigenvalue problem:
     a serial algorithm will be used


     Parallelization info
     --------------------
     sticks:   dense  smooth     PW     G-vecs:    dense   smooth      PW
     Min         261     130     36                11875     4192     622
     Max         262     131     37                11878     4195     625
     Sum        3657    1829    509               166269    58701    8733

     Using Slab Decomposition



     bravais-lattice index     =            0
     lattice parameter (alat)  =       9.7806  a.u.
     unit-cell volume          =     935.6060 (a.u.)^3
     number of atoms/cell      =           16
     number of atomic types    =            2
     number of electrons       =        32.00
     number of Kohn-Sham states=           20
     kinetic-energy cutoff     =      60.0000  Ry
     charge density cutoff     =     480.0000  Ry
     scf convergence threshold =      3.2E-09
     mixing beta               =       0.4000
     number of iterations used =            8  plain     mixing
     energy convergence thresh.=      1.6E-04
     force convergence thresh. =      1.0E-04
     press convergence thresh. =      5.0E-01
     Exchange-correlation= PBE
                           (   1   4   3   4   0   0   0)
     nstep                     =           50


     celldm(1)=   9.780574  celldm(2)=   0.000000  celldm(3)=   0.000000
     celldm(4)=   0.000000  celldm(5)=   0.000000  celldm(6)=   0.000000

     crystal axes: (cart. coord. in units of alat)
               a(1) = (   1.000000   0.000000   0.000000 )  
               a(2) = (   0.000000   1.000000   0.000000 )  
               a(3) = (   0.000000   0.000000   1.000000 )  

     reciprocal axes: (cart. coord. in units 2 pi/alat)
               b(1) = (  1.000000  0.000000  0.000000 )  
               b(2) = (  0.000000  1.000000  0.000000 )  
               b(3) = (  0.000000  0.000000  1.000000 )  


     PseudoPot. # 1 for H  read from file:
     ./pseudo/H.pbe-rrkjus_psl.1.0.0.UPF
     MD5 check sum: 3f4114867bd07edc7f1424d066fc1888
     Pseudo is Ultrasoft, Zval =  1.0
     Generated using &quot;atomic&quot; code by A. Dal Corso  v.6.3MaX
     Using radial grid of  929 points,  2 beta functions with: 
                l(1) =   0
                l(2) =   0
     Q(r) pseudized with 0 coefficients 


     PseudoPot. # 2 for N  read from file:
     ./pseudo/N.pbe-n-rrkjus_psl.1.0.0.UPF
     MD5 check sum: ada94e3ed05223de5319d0572dc76806
     Pseudo is Ultrasoft + core correction, Zval =  5.0
     Generated using &quot;atomic&quot; code by A. Dal Corso  v.6.3MaX
     Using radial grid of 1085 points,  4 beta functions with: 
                l(1) =   0
                l(2) =   0
                l(3) =   1
                l(4) =   1
     Q(r) pseudized with 0 coefficients 


     atomic species   valence    mass     pseudopotential
        H              1.00     1.00794     H ( 1.00)
        N              5.00    14.00670     N ( 1.00)

     12 Sym. Ops. (no inversion) found ( 9 have fractional translation)


                                    s                        frac. trans.

      isym =  1     identity                                     

 cryst.   s( 1) = (     1          0          0      )
                  (     0          1          0      )
                  (     0          0          1      )

 cart.    s( 1) = (  1.0000000  0.0000000  0.0000000 )
                  (  0.0000000  1.0000000  0.0000000 )
                  (  0.0000000  0.0000000  1.0000000 )


      isym =  2     180 deg rotation - cart. axis [0,0,1]        

 cryst.   s( 2) = (    -1          0          0      )    f =(  0.5000000 )
                  (     0         -1          0      )       (  0.0000000 )
                  (     0          0          1      )       ( -0.5000000 )

 cart.    s( 2) = ( -1.0000000  0.0000000  0.0000000 )    f =(  0.5000000 )
                  (  0.0000000 -1.0000000  0.0000000 )       (  0.0000000 )
                  (  0.0000000  0.0000000  1.0000000 )       ( -0.5000000 )


      isym =  3     180 deg rotation - cart. axis [0,1,0]        

 cryst.   s( 3) = (    -1          0          0      )    f =(  0.0000000 )
                  (     0          1          0      )       ( -0.5000000 )
                  (     0          0         -1      )       (  0.5000000 )

 cart.    s( 3) = ( -1.0000000  0.0000000  0.0000000 )    f =(  0.0000000 )
                  (  0.0000000  1.0000000  0.0000000 )       ( -0.5000000 )
                  (  0.0000000  0.0000000 -1.0000000 )       (  0.5000000 )


      isym =  4     180 deg rotation - cart. axis [1,0,0]        

 cryst.   s( 4) = (     1          0          0      )    f =( -0.5000000 )
                  (     0         -1          0      )       (  0.5000000 )
                  (     0          0         -1      )       (  0.0000000 )

 cart.    s( 4) = (  1.0000000  0.0000000  0.0000000 )    f =( -0.5000000 )
                  (  0.0000000 -1.0000000  0.0000000 )       (  0.5000000 )
                  (  0.0000000  0.0000000 -1.0000000 )       (  0.0000000 )


      isym =  5     120 deg rotation - cart. axis [-1,-1,-1]     

 cryst.   s( 5) = (     0          0          1      )
                  (     1          0          0      )
                  (     0          1          0      )

 cart.    s( 5) = (  0.0000000  1.0000000  0.0000000 )
                  (  0.0000000  0.0000000  1.0000000 )
                  (  1.0000000  0.0000000  0.0000000 )


      isym =  6     120 deg rotation - cart. axis [-1,1,1]       

 cryst.   s( 6) = (     0          0         -1      )    f =(  0.0000000 )
                  (    -1          0          0      )       ( -0.5000000 )
                  (     0          1          0      )       (  0.5000000 )

 cart.    s( 6) = (  0.0000000 -1.0000000  0.0000000 )    f =(  0.0000000 )
                  (  0.0000000  0.0000000  1.0000000 )       ( -0.5000000 )
                  ( -1.0000000  0.0000000  0.0000000 )       (  0.5000000 )


      isym =  7     120 deg rotation - cart. axis [1,1,-1]       

 cryst.   s( 7) = (     0          0         -1      )    f =( -0.5000000 )
                  (     1          0          0      )       (  0.5000000 )
                  (     0         -1          0      )       (  0.0000000 )

 cart.    s( 7) = (  0.0000000  1.0000000  0.0000000 )    f =( -0.5000000 )
                  (  0.0000000  0.0000000 -1.0000000 )       (  0.5000000 )
                  ( -1.0000000  0.0000000  0.0000000 )       (  0.0000000 )


      isym =  8     120 deg rotation - cart. axis [1,-1,1]       

 cryst.   s( 8) = (     0          0          1      )    f =(  0.5000000 )
                  (    -1          0          0      )       (  0.0000000 )
                  (     0         -1          0      )       ( -0.5000000 )

 cart.    s( 8) = (  0.0000000 -1.0000000  0.0000000 )    f =(  0.5000000 )
                  (  0.0000000  0.0000000 -1.0000000 )       (  0.0000000 )
                  (  1.0000000  0.0000000  0.0000000 )       ( -0.5000000 )


      isym =  9     120 deg rotation - cart. axis [1,1,1]        

 cryst.   s( 9) = (     0          1          0      )
                  (     0          0          1      )
                  (     1          0          0      )

 cart.    s( 9) = (  0.0000000  0.0000000  1.0000000 )
                  (  1.0000000  0.0000000  0.0000000 )
                  (  0.0000000  1.0000000  0.0000000 )


      isym = 10     120 deg rotation - cart. axis [-1,1,-1]      

 cryst.   s(10) = (     0         -1          0      )    f =( -0.5000000 )
                  (     0          0         -1      )       (  0.5000000 )
                  (     1          0          0      )       (  0.0000000 )

 cart.    s(10) = (  0.0000000  0.0000000  1.0000000 )    f =( -0.5000000 )
                  ( -1.0000000  0.0000000  0.0000000 )       (  0.5000000 )
                  (  0.0000000 -1.0000000  0.0000000 )       (  0.0000000 )


      isym = 11     120 deg rotation - cart. axis [1,-1,-1]      

 cryst.   s(11) = (     0         -1          0      )    f =(  0.5000000 )
                  (     0          0          1      )       (  0.0000000 )
                  (    -1          0          0      )       ( -0.5000000 )

 cart.    s(11) = (  0.0000000  0.0000000 -1.0000000 )    f =(  0.5000000 )
                  ( -1.0000000  0.0000000  0.0000000 )       (  0.0000000 )
                  (  0.0000000  1.0000000  0.0000000 )       ( -0.5000000 )


      isym = 12     120 deg rotation - cart. axis [-1,-1,1]      

 cryst.   s(12) = (     0          1          0      )    f =(  0.0000000 )
                  (     0          0         -1      )       ( -0.5000000 )
                  (    -1          0          0      )       (  0.5000000 )

 cart.    s(12) = (  0.0000000  0.0000000 -1.0000000 )    f =(  0.0000000 )
                  (  1.0000000  0.0000000  0.0000000 )       ( -0.5000000 )
                  (  0.0000000 -1.0000000  0.0000000 )       (  0.5000000 )


   Cartesian axes

     site n.     atom                  positions (alat units)
         1           N   tau(   1) = (   0.1965969   0.1965969   0.1965969  )
         2           N   tau(   2) = (   0.3034031   0.8034031   0.6965969  )
         3           N   tau(   3) = (   0.8034031   0.6965969   0.3034031  )
         4           N   tau(   4) = (   0.6965969   0.3034031   0.8034031  )
         5           H   tau(   5) = (   0.3510363   0.2703623   0.0960458  )
         6           H   tau(   6) = (   0.1489637   0.7296377   0.5960458  )
         7           H   tau(   7) = (   0.6489637   0.7703623   0.4039542  )
         8           H   tau(   8) = (   0.8510363   0.2296377   0.9039542  )
         9           H   tau(   9) = (   0.0960458   0.3510363   0.2703623  )
        10           H   tau(  10) = (   0.5960458   0.1489637   0.7296377  )
        11           H   tau(  11) = (   0.4039542   0.6489637   0.7703623  )
        12           H   tau(  12) = (   0.9039542   0.8510363   0.2296377  )
        13           H   tau(  13) = (   0.2703623   0.0960458   0.3510363  )
        14           H   tau(  14) = (   0.7296377   0.5960458   0.1489637  )
        15           H   tau(  15) = (   0.7703623   0.4039542   0.6489637  )
        16           H   tau(  16) = (   0.2296377   0.9039542   0.8510363  )

   Crystallographic axes

     site n.     atom                  positions (cryst. coord.)
         1           N   tau(   1) = (  0.1965969  0.1965969  0.1965969  )
         2           N   tau(   2) = (  0.3034031  0.8034031  0.6965969  )
         3           N   tau(   3) = (  0.8034031  0.6965969  0.3034031  )
         4           N   tau(   4) = (  0.6965969  0.3034031  0.8034031  )
         5           H   tau(   5) = (  0.3510363  0.2703623  0.0960458  )
         6           H   tau(   6) = (  0.1489637  0.7296377  0.5960458  )
         7           H   tau(   7) = (  0.6489637  0.7703623  0.4039542  )
         8           H   tau(   8) = (  0.8510363  0.2296377  0.9039542  )
         9           H   tau(   9) = (  0.0960458  0.3510363  0.2703623  )
        10           H   tau(  10) = (  0.5960458  0.1489637  0.7296377  )
        11           H   tau(  11) = (  0.4039542  0.6489637  0.7703623  )
        12           H   tau(  12) = (  0.9039542  0.8510363  0.2296377  )
        13           H   tau(  13) = (  0.2703623  0.0960458  0.3510363  )
        14           H   tau(  14) = (  0.7296377  0.5960458  0.1489637  )
        15           H   tau(  15) = (  0.7703623  0.4039542  0.6489637  )
        16           H   tau(  16) = (  0.2296377  0.9039542  0.8510363  )

     number of k points=    24  Marzari-Vanderbilt smearing, width (Ry)=  0.0147
                       cart. coord. in units 2pi/alat
        k(    1) = (   0.0000000   0.0000000   0.0000000), wk =   0.0058309
        k(    2) = (   0.0000000   0.0000000   0.1428571), wk =   0.0349854
        k(    3) = (   0.0000000   0.0000000   0.2857143), wk =   0.0349854
        k(    4) = (   0.0000000   0.0000000   0.4285714), wk =   0.0349854
        k(    5) = (   0.0000000   0.1428571   0.1428571), wk =   0.0699708
        k(    6) = (   0.0000000   0.1428571   0.2857143), wk =   0.0699708
        k(    7) = (   0.0000000   0.1428571   0.4285714), wk =   0.0699708
        k(    8) = (   0.0000000   0.2857143   0.2857143), wk =   0.0699708
        k(    9) = (   0.0000000   0.2857143   0.4285714), wk =   0.0699708
        k(   10) = (   0.0000000   0.4285714   0.4285714), wk =   0.0699708
        k(   11) = (   0.1428571   0.1428571   0.1428571), wk =   0.0466472
        k(   12) = (   0.1428571   0.1428571   0.2857143), wk =   0.1399417
        k(   13) = (   0.1428571   0.1428571   0.4285714), wk =   0.1399417
        k(   14) = (   0.1428571   0.2857143   0.2857143), wk =   0.1399417
        k(   15) = (   0.1428571   0.2857143   0.4285714), wk =   0.1399417
        k(   16) = (   0.1428571   0.4285714   0.4285714), wk =   0.1399417
        k(   17) = (   0.2857143   0.2857143   0.2857143), wk =   0.0466472
        k(   18) = (   0.2857143   0.2857143   0.4285714), wk =   0.1399417
        k(   19) = (   0.2857143   0.4285714   0.4285714), wk =   0.1399417
        k(   20) = (   0.4285714   0.4285714   0.4285714), wk =   0.0466472
        k(   21) = (   0.0000000   0.2857143   0.1428571), wk =   0.0699708
        k(   22) = (   0.0000000   0.4285714   0.1428571), wk =   0.0699708
        k(   23) = (   0.0000000   0.4285714   0.2857143), wk =   0.0699708
        k(   24) = (  -0.1428571   0.4285714   0.2857143), wk =   0.1399417

                       cryst. coord.
        k(    1) = (   0.0000000   0.0000000   0.0000000), wk =   0.0058309
        k(    2) = (   0.0000000   0.0000000   0.1428571), wk =   0.0349854
        k(    3) = (   0.0000000   0.0000000   0.2857143), wk =   0.0349854
        k(    4) = (   0.0000000   0.0000000   0.4285714), wk =   0.0349854
        k(    5) = (   0.0000000   0.1428571   0.1428571), wk =   0.0699708
        k(    6) = (   0.0000000   0.1428571   0.2857143), wk =   0.0699708
        k(    7) = (   0.0000000   0.1428571   0.4285714), wk =   0.0699708
        k(    8) = (   0.0000000   0.2857143   0.2857143), wk =   0.0699708
        k(    9) = (   0.0000000   0.2857143   0.4285714), wk =   0.0699708
        k(   10) = (   0.0000000   0.4285714   0.4285714), wk =   0.0699708
        k(   11) = (   0.1428571   0.1428571   0.1428571), wk =   0.0466472
        k(   12) = (   0.1428571   0.1428571   0.2857143), wk =   0.1399417
        k(   13) = (   0.1428571   0.1428571   0.4285714), wk =   0.1399417
        k(   14) = (   0.1428571   0.2857143   0.2857143), wk =   0.1399417
        k(   15) = (   0.1428571   0.2857143   0.4285714), wk =   0.1399417
        k(   16) = (   0.1428571   0.4285714   0.4285714), wk =   0.1399417
        k(   17) = (   0.2857143   0.2857143   0.2857143), wk =   0.0466472
        k(   18) = (   0.2857143   0.2857143   0.4285714), wk =   0.1399417
        k(   19) = (   0.2857143   0.4285714   0.4285714), wk =   0.1399417
        k(   20) = (   0.4285714   0.4285714   0.4285714), wk =   0.0466472
        k(   21) = (   0.0000000   0.2857143   0.1428571), wk =   0.0699708
        k(   22) = (   0.0000000   0.4285714   0.1428571), wk =   0.0699708
        k(   23) = (   0.0000000   0.4285714   0.2857143), wk =   0.0699708
        k(   24) = (  -0.1428571   0.4285714   0.2857143), wk =   0.1399417

     Dense  grid:   166269 G-vectors     FFT dimensions: (  72,  72,  72)

     Smooth grid:    58701 G-vectors     FFT dimensions: (  50,  50,  50)

     Dynamical RAM for                 wfc:       0.16 MB

     Dynamical RAM for     wfc (w. buffer):       4.00 MB

     Dynamical RAM for           str. fact:       0.36 MB

     Dynamical RAM for           local pot:       0.00 MB

     Dynamical RAM for          nlocal pot:       0.45 MB

     Dynamical RAM for                qrad:       2.01 MB

     Dynamical RAM for          rho,v,vnew:       1.26 MB

     Dynamical RAM for               rhoin:       0.42 MB

     Dynamical RAM for            rho*nmix:       2.90 MB

     Dynamical RAM for           G-vectors:       0.71 MB

     Dynamical RAM for          h,s,v(r/c):       0.07 MB

     Dynamical RAM for          <psi|beta>:       0.02 MB

     Dynamical RAM for                 psi:       0.32 MB

     Dynamical RAM for                hpsi:       0.32 MB

     Dynamical RAM for                spsi:       0.32 MB

     Dynamical RAM for      wfcinit/wfcrot:       0.47 MB

     Dynamical RAM for           addusdens:       9.97 MB

     Dynamical RAM for          addusforce:      14.06 MB

     Dynamical RAM for         addusstress:       9.06 MB

     Estimated static dynamical RAM per process >      10.93 MB

     Estimated max dynamical RAM per process >      27.89 MB

     Estimated total dynamical RAM >     390.43 MB

     Check: negative core charge=   -0.000001

     Initial potential from superposition of free atoms

     starting charge      31.9999, renormalised to      32.0000
     Starting wfcs are   28 randomized atomic wfcs

     total cpu time spent up to now is        4.3 secs

     Self-consistent Calculation

     iteration #  1     ecut=    60.00 Ry     beta= 0.40
     Davidson diagonalization with overlap

---- Real-time Memory Report at c_bands before calling an iterative solver
            46 MiB given to the printing process from OS
             0 MiB allocation reported by mallinfo(arena+hblkhd)
         23169 MiB available memory on the node where the printing process lives
------------------
     ethr =  1.00E-02,  avg # of iterations =  3.0

     total cpu time spent up to now is        8.1 secs

     total energy              =     -95.85301964 Ry
     estimated scf accuracy    <       2.21175880 Ry

     iteration #  2     ecut=    60.00 Ry     beta= 0.40
     Davidson diagonalization with overlap

---- Real-time Memory Report at c_bands before calling an iterative solver
            54 MiB given to the printing process from OS
             0 MiB allocation reported by mallinfo(arena+hblkhd)
         23064 MiB available memory on the node where the printing process lives
------------------
     ethr =  6.91E-03,  avg # of iterations =  2.0

     total cpu time spent up to now is       11.2 secs

     total energy              =     -96.24364761 Ry
     estimated scf accuracy    <       0.11880527 Ry

     iteration #  3     ecut=    60.00 Ry     beta= 0.40
     Davidson diagonalization with overlap

---- Real-time Memory Report at c_bands before calling an iterative solver
            55 MiB given to the printing process from OS
             0 MiB allocation reported by mallinfo(arena+hblkhd)
         23058 MiB available memory on the node where the printing process lives
------------------
     ethr =  3.71E-04,  avg # of iterations =  5.1

     total cpu time spent up to now is       14.3 secs

     total energy              =     -96.23292517 Ry
     estimated scf accuracy    <       0.04177135 Ry

     iteration #  4     ecut=    60.00 Ry     beta= 0.40
     Davidson diagonalization with overlap

---- Real-time Memory Report at c_bands before calling an iterative solver
            55 MiB given to the printing process from OS
             0 MiB allocation reported by mallinfo(arena+hblkhd)
         23056 MiB available memory on the node where the printing process lives
------------------
     ethr =  1.31E-04,  avg # of iterations =  3.3

     total cpu time spent up to now is       17.0 secs

     total energy              =     -96.23519118 Ry
     estimated scf accuracy    <       0.00176228 Ry

     iteration #  5     ecut=    60.00 Ry     beta= 0.40
     Davidson diagonalization with overlap

---- Real-time Memory Report at c_bands before calling an iterative solver
            55 MiB given to the printing process from OS
             0 MiB allocation reported by mallinfo(arena+hblkhd)
         23055 MiB available memory on the node where the printing process lives
------------------
     ethr =  5.51E-06,  avg # of iterations =  5.9

     total cpu time spent up to now is       20.9 secs

     total energy              =     -96.23500454 Ry
     estimated scf accuracy    <       0.00069287 Ry

     iteration #  6     ecut=    60.00 Ry     beta= 0.40
     Davidson diagonalization with overlap

---- Real-time Memory Report at c_bands before calling an iterative solver
            55 MiB given to the printing process from OS
             0 MiB allocation reported by mallinfo(arena+hblkhd)
         23021 MiB available memory on the node where the printing process lives
------------------
     ethr =  2.17E-06,  avg # of iterations =  2.4

     total cpu time spent up to now is       24.4 secs

     total energy              =     -96.23518339 Ry
     estimated scf accuracy    <       0.00011590 Ry

     iteration #  7     ecut=    60.00 Ry     beta= 0.40
     Davidson diagonalization with overlap

---- Real-time Memory Report at c_bands before calling an iterative solver
            55 MiB given to the printing process from OS
             0 MiB allocation reported by mallinfo(arena+hblkhd)
         23019 MiB available memory on the node where the printing process lives
------------------
     ethr =  3.62E-07,  avg # of iterations =  2.0

     total cpu time spent up to now is       27.6 secs

     total energy              =     -96.23521092 Ry
     estimated scf accuracy    <       0.00000996 Ry

     iteration #  8     ecut=    60.00 Ry     beta= 0.40
     Davidson diagonalization with overlap

---- Real-time Memory Report at c_bands before calling an iterative solver
            55 MiB given to the printing process from OS
             0 MiB allocation reported by mallinfo(arena+hblkhd)
         23016 MiB available memory on the node where the printing process lives
------------------
     ethr =  3.11E-08,  avg # of iterations =  2.0

     total cpu time spent up to now is       31.0 secs

     total energy              =     -96.23521390 Ry
     estimated scf accuracy    <       0.00000227 Ry

     iteration #  9     ecut=    60.00 Ry     beta= 0.40
     Davidson diagonalization with overlap

---- Real-time Memory Report at c_bands before calling an iterative solver
            55 MiB given to the printing process from OS
             0 MiB allocation reported by mallinfo(arena+hblkhd)
         23015 MiB available memory on the node where the printing process lives
------------------
     ethr =  7.08E-09,  avg # of iterations =  1.0

     total cpu time spent up to now is       33.4 secs

     total energy              =     -96.23521264 Ry
     estimated scf accuracy    <       0.00000221 Ry

     iteration # 10     ecut=    60.00 Ry     beta= 0.40
     Davidson diagonalization with overlap

---- Real-time Memory Report at c_bands before calling an iterative solver
            55 MiB given to the printing process from OS
             0 MiB allocation reported by mallinfo(arena+hblkhd)
         23011 MiB available memory on the node where the printing process lives
------------------
     ethr =  6.91E-09,  avg # of iterations =  2.0

     total cpu time spent up to now is       36.8 secs

     total energy              =     -96.23521327 Ry
     estimated scf accuracy    <       0.00000044 Ry

     iteration # 11     ecut=    60.00 Ry     beta= 0.40
     Davidson diagonalization with overlap

---- Real-time Memory Report at c_bands before calling an iterative solver
            56 MiB given to the printing process from OS
             0 MiB allocation reported by mallinfo(arena+hblkhd)
         23004 MiB available memory on the node where the printing process lives
------------------
     ethr =  1.36E-09,  avg # of iterations =  2.0

     total cpu time spent up to now is       39.9 secs

     End of self-consistent calculation

          k = 0.0000 0.0000 0.0000 (  7249 PWs)   bands (ev):

   -17.3368 -16.7060 -16.7060 -16.7060  -7.6047  -7.6047  -7.6047  -6.8009
    -6.8009  -6.5745  -6.5745  -6.5745  -2.3527  -2.3527  -2.3527  -1.7978
     2.4668   5.8058   5.8058   5.8058

     occupation numbers 
     1.0000   1.0000   1.0000   1.0000   1.0000   1.0000   1.0000   1.0000
     1.0000   1.0000   1.0000   1.0000   1.0000   1.0000   1.0000   1.0000
     0.0000   0.0000   0.0000   0.0000

          k = 0.0000 0.0000 0.1429 (  7296 PWs)   bands (ev):

   -17.3105 -16.7708 -16.7022 -16.6738  -7.6215  -7.5995  -7.5288  -6.8373
    -6.7789  -6.6856  -6.5985  -6.5016  -2.4563  -2.4062  -2.2495  -1.8219
     2.6710   5.6314   5.9702   6.0262

     occupation numbers 
     1.0000   1.0000   1.0000   1.0000   1.0000   1.0000   1.0000   1.0000
     1.0000   1.0000   1.0000   1.0000   1.0000   1.0000   1.0000   1.0000
     0.0000   0.0000   0.0000   0.0000

          k = 0.0000 0.0000 0.2857 (  7328 PWs)   bands (ev):

   -17.2358 -16.8708 -16.6920 -16.6641  -7.5997  -7.5854  -7.3947  -6.9330
    -6.7893  -6.7322  -6.6561  -6.4898  -2.5455  -2.5134  -2.1537  -1.8878
     3.2186   5.3329   6.3013   6.3987

     occupation numbers 
     1.0000   1.0000   1.0000   1.0000   1.0000   1.0000   1.0000   1.0000
     1.0000   1.0000   1.0000   1.0000   1.0000   1.0000   1.0000   1.0000
     0.0000   0.0000   0.0000   0.0000

          k = 0.0000 0.0000 0.4286 (  7344 PWs)   bands (ev):

   -17.1246 -16.9955 -16.6791 -16.6680  -7.5739  -7.5709  -7.2276  -7.0664
    -6.8312  -6.7853  -6.6131  -6.5353  -2.5981  -2.5898  -2.0640  -1.9746
     3.9643   4.7356   6.6460   6.8030

     occupation numbers 
     1.0000   1.0000   1.0000   1.0000   1.0000   1.0000   1.0000   1.0000
     1.0000   1.0000   1.0000   1.0000   1.0000   1.0000   1.0000   1.0000
     0.0000   0.0000   0.0000   0.0000

          k = 0.0000 0.1429 0.1429 (  7331 PWs)   bands (ev):

   -17.2853 -16.7924 -16.7158 -16.6658  -7.6090  -7.6013  -7.4898  -6.8521
    -6.7959  -6.6866  -6.6638  -6.4666  -2.4863  -2.4581  -2.2060  -1.8440
     2.8592   5.6460   5.9725   6.2031

     occupation numbers 
     1.0000   1.0000   1.0000   1.0000   1.0000   1.0000   1.0000   1.0000
     1.0000   1.0000   1.0000   1.0000   1.0000   1.0000   1.0000   1.0000
     0.0000   0.0000   0.0000   0.0000

          k = 0.0000 0.1429 0.2857 (  7325 PWs)   bands (ev):

   -17.2136 -16.8712 -16.7125 -16.6665  -7.5976  -7.5852  -7.3839  -6.9170
    -6.8570  -6.7410  -6.6561  -6.4573  -2.5479  -2.5420  -2.1323  -1.9027
     3.3719   5.4526   6.1126   6.6036

     occupation numbers 
     1.0000   1.0000   1.0000   1.0000   1.0000   1.0000   1.0000   1.0000
     1.0000   1.0000   1.0000   1.0000   1.0000   1.0000   1.0000   1.0000
     0.0000   0.0000   0.0000   0.0000

          k = 0.0000 0.1429 0.4286 (  7354 PWs)   bands (ev):

   -17.1074 -16.9854 -16.6962 -16.6785  -7.5854  -7.5757  -7.2314  -7.0612
    -6.8712  -6.8159  -6.5784  -6.5007  -2.5964  -2.5930  -2.0567  -1.9790
     4.0873   4.8511   6.4701   6.8137

     occupation numbers 
     1.0000   1.0000   1.0000   1.0000   1.0000   1.0000   1.0000   1.0000
     1.0000   1.0000   1.0000   1.0000   1.0000   1.0000   1.0000   1.0000
     0.0000   0.0000   0.0000   0.0000

          k = 0.0000 0.2857 0.2857 (  7349 PWs)   bands (ev):

   -17.1509 -16.8916 -16.7414 -16.6822  -7.6019  -7.5688  -7.3610  -6.9928
    -6.8889  -6.7468  -6.6232  -6.4462  -2.5865  -2.5596  -2.0908  -1.9413
     3.7997   5.5959   5.9671   6.8385

     occupation numbers 
     1.0000   1.0000   1.0000   1.0000   1.0000   1.0000   1.0000   1.0000
     1.0000   1.0000   1.0000   1.0000   1.0000   1.0000   1.0000   1.0000
     0.0000   0.0000   0.0000   0.0000

          k = 0.0000 0.2857 0.4286 (  7340 PWs)   bands (ev):

   -17.0603 -16.9627 -16.7359 -16.7091  -7.5953  -7.5809  -7.2726  -7.1367
    -6.8565  -6.7944  -6.5449  -6.4763  -2.6000  -2.5873  -2.0416  -1.9908
     4.4338   5.1681   6.0764   6.5523

     occupation numbers 
     1.0000   1.0000   1.0000   1.0000   1.0000   1.0000   1.0000   1.0000
     1.0000   1.0000   1.0000   1.0000   1.0000   1.0000   1.0000   1.0000
     0.0000   0.0000   0.0000   0.0000

          k = 0.0000 0.4286 0.4286 (  7349 PWs)   bands (ev):

   -16.9991 -16.9570 -16.7647 -16.7477  -7.5882  -7.5768  -7.3094  -7.2556
    -6.7765  -6.7422  -6.5377  -6.5029  -2.5943  -2.5865  -2.0253  -2.0074
     4.9436   5.5217   5.6212   6.0977

     occupation numbers 
     1.0000   1.0000   1.0000   1.0000   1.0000   1.0000   1.0000   1.0000
     1.0000   1.0000   1.0000   1.0000   1.0000   1.0000   1.0000   1.0000
     0.0000   0.0000   0.0000   0.0000

          k = 0.1429 0.1429 0.1429 (  7349 PWs)   bands (ev):

   -17.2610 -16.8061 -16.7281 -16.6656  -7.6076  -7.5945  -7.4658  -6.8663
    -6.7887  -6.7561  -6.6573  -6.4423  -2.5010  -2.4992  -2.1752  -1.8643
     3.0321   5.6677   6.0295   6.2991

     occupation numbers 
     1.0000   1.0000   1.0000   1.0000   1.0000   1.0000   1.0000   1.0000
     1.0000   1.0000   1.0000   1.0000   1.0000   1.0000   1.0000   1.0000
     0.0000   0.0000   0.0000   0.0000

          k = 0.1429 0.1429 0.2857 (  7322 PWs)   bands (ev):

   -17.1922 -16.8707 -16.7283 -16.6731  -7.6102  -7.5762  -7.3938  -6.9328
    -6.8732  -6.7528  -6.6348  -6.4357  -2.5652  -2.5383  -2.1171  -1.9174
     3.5092   5.5021   6.1836   6.6098

     occupation numbers 
     1.0000   1.0000   1.0000   1.0000   1.0000   1.0000   1.0000   1.0000
     1.0000   1.0000   1.0000   1.0000   1.0000   1.0000   1.0000   1.0000
     0.0000   0.0000   0.0000   0.0000

          k = 0.1429 0.1429 0.4286 (  7345 PWs)   bands (ev):

   -17.0909 -16.9756 -16.7108 -16.6898  -7.6003  -7.5810  -7.2700  -7.1055
    -6.8495  -6.7857  -6.5623  -6.4808  -2.5955  -2.5795  -2.0536  -1.9854
     4.1869   4.9235   6.4990   6.8468

     occupation numbers 
     1.0000   1.0000   1.0000   1.0000   1.0000   1.0000   1.0000   1.0000
     1.0000   1.0000   1.0000   1.0000   1.0000   1.0000   1.0000   1.0000
     0.0000   0.0000   0.0000   0.0000

          k = 0.1429 0.2857 0.2857 (  7354 PWs)   bands (ev):

   -17.1323 -16.8874 -16.7535 -16.6922  -7.6194  -7.5809  -7.3937  -7.0536
    -6.8601  -6.7172  -6.5985  -6.4193  -2.5835  -2.5446  -2.0838  -1.9549
     3.9008   5.6213   5.9960   6.7213

     occupation numbers 
     1.0000   1.0000   1.0000   1.0000   1.0000   1.0000   1.0000   1.0000
     1.0000   1.0000   1.0000   1.0000   1.0000   1.0000   1.0000   1.0000
     0.0000   0.0000   0.0000   0.0000

          k = 0.1429 0.2857 0.4286 (  7349 PWs)   bands (ev):

   -17.0459 -16.9534 -16.7470 -16.7199  -7.6186  -7.6016  -7.3338  -7.2093
    -6.7993  -6.7351  -6.5223  -6.4495  -2.5811  -2.5622  -2.0449  -2.0011
     4.4910   5.1877   6.0597   6.4483

     occupation numbers 
     1.0000   1.0000   1.0000   1.0000   1.0000   1.0000   1.0000   1.0000
     1.0000   1.0000   1.0000   1.0000   1.0000   1.0000   1.0000   1.0000
     0.0000   0.0000   0.0000   0.0000

          k = 0.1429 0.4286 0.4286 (  7329 PWs)   bands (ev):

   -16.9873 -16.9471 -16.7740 -16.7572  -7.6180  -7.6065  -7.3809  -7.3305
    -6.7115  -6.6748  -6.5071  -6.4688  -2.5608  -2.5512  -2.0358  -2.0207
     4.9511   5.4946   5.5722   5.9876

     occupation numbers 
     1.0000   1.0000   1.0000   1.0000   1.0000   1.0000   1.0000   1.0000
     1.0000   1.0000   1.0000   1.0000   1.0000   1.0000   1.0000   1.0000
     0.0000   0.0000   0.0000   0.0000

          k = 0.2857 0.2857 0.2857 (  7331 PWs)   bands (ev):

   -17.0804 -16.8880 -16.7784 -16.7169  -7.6414  -7.6154  -7.4482  -7.2006
    -6.7836  -6.6282  -6.5655  -6.3895  -2.5632  -2.5165  -2.0712  -1.9904
     4.1987   5.6504   5.9769   6.2230

     occupation numbers 
     1.0000   1.0000   1.0000   1.0000   1.0000   1.0000   1.0000   1.0000
     1.0000   1.0000   1.0000   1.0000   1.0000   1.0000   1.0000   1.0000
     0.0000   0.0000   0.0000   0.0000

          k = 0.2857 0.2857 0.4286 (  7361 PWs)   bands (ev):

   -17.0066 -16.9311 -16.7763 -16.7484  -7.6533  -7.6426  -7.4453  -7.3506
    -6.6900  -6.6192  -6.4858  -6.4100  -2.5278  -2.5054  -2.0574  -2.0307
     4.6724   5.2641   5.9106   6.0484

     occupation numbers 
     1.0000   1.0000   1.0000   1.0000   1.0000   1.0000   1.0000   1.0000
     1.0000   1.0000   1.0000   1.0000   1.0000   1.0000   1.0000   1.0000
     0.0000   0.0000   0.0000   0.0000

          k = 0.2857 0.4286 0.4286 (  7346 PWs)   bands (ev):

   -16.9550 -16.9206 -16.8003 -16.7833  -7.6684  -7.6619  -7.5132  -7.4731
    -6.5904  -6.5481  -6.4538  -6.4104  -2.4698  -2.4590  -2.0730  -2.0649
     4.9951   5.4242   5.4619   5.6971

     occupation numbers 
     1.0000   1.0000   1.0000   1.0000   1.0000   1.0000   1.0000   1.0000
     1.0000   1.0000   1.0000   1.0000   1.0000   1.0000   1.0000   1.0000
     0.0000   0.0000   0.0000   0.0000

          k = 0.4286 0.4286 0.4286 (  7355 PWs)   bands (ev):

   -16.9124 -16.8926 -16.8311 -16.8179  -7.6903  -7.6856  -7.6095  -7.5896
    -6.4901  -6.4558  -6.4252  -6.3907  -2.3618  -2.3555  -2.1339  -2.1330
     5.1243   5.3588   5.3713   5.3744

     occupation numbers 
     1.0000   1.0000   1.0000   1.0000   1.0000   1.0000   1.0000   1.0000
     1.0000   1.0000   1.0000   1.0000   1.0000   1.0000   1.0000   1.0000
     0.0000   0.0000   0.0000   0.0000

          k = 0.0000 0.2857 0.1429 (  7325 PWs)   bands (ev):

   -17.2136 -16.8712 -16.7125 -16.6665  -7.6032  -7.5743  -7.3921  -6.9383
    -6.8249  -6.7353  -6.6639  -6.4631  -2.5582  -2.5300  -2.1339  -1.9027
     3.3709   5.4063   6.3290   6.4524

     occupation numbers 
     1.0000   1.0000   1.0000   1.0000   1.0000   1.0000   1.0000   1.0000
     1.0000   1.0000   1.0000   1.0000   1.0000   1.0000   1.0000   1.0000
     0.0000   0.0000   0.0000   0.0000

          k = 0.0000 0.4286 0.1429 (  7354 PWs)   bands (ev):

   -17.1074 -16.9854 -16.6962 -16.6785  -7.5855  -7.5671  -7.2510  -7.0850
    -6.8397  -6.7792  -6.5985  -6.5144  -2.6007  -2.5858  -2.0584  -1.9796
     4.0805   4.8272   6.7590   6.7940

     occupation numbers 
     1.0000   1.0000   1.0000   1.0000   1.0000   1.0000   1.0000   1.0000
     1.0000   1.0000   1.0000   1.0000   1.0000   1.0000   1.0000   1.0000
     0.0000   0.0000   0.0000   0.0000

          k = 0.0000 0.4286 0.2857 (  7340 PWs)   bands (ev):

   -17.0603 -16.9627 -16.7359 -16.7091  -7.5930  -7.5704  -7.2959  -7.1603
    -6.8237  -6.7520  -6.5709  -6.4922  -2.6003  -2.5829  -2.0438  -1.9918
     4.4170   5.0950   6.3465   6.7436

     occupation numbers 
     1.0000   1.0000   1.0000   1.0000   1.0000   1.0000   1.0000   1.0000
     1.0000   1.0000   1.0000   1.0000   1.0000   1.0000   1.0000   1.0000
     0.0000   0.0000   0.0000   0.0000

          k =-0.1429 0.4286 0.2857 (  7349 PWs)   bands (ev):

   -17.0459 -16.9534 -16.7470 -16.7199  -7.6174  -7.5961  -7.3440  -7.2182
    -6.7856  -6.7151  -6.5362  -6.4574  -2.5808  -2.5602  -2.0462  -2.0018
     4.4804   5.1402   6.2237   6.5254

     occupation numbers 
     1.0000   1.0000   1.0000   1.0000   1.0000   1.0000   1.0000   1.0000
     1.0000   1.0000   1.0000   1.0000   1.0000   1.0000   1.0000   1.0000
     0.0000   0.0000   0.0000   0.0000

     the Fermi energy is     0.0394 ev

!    total energy              =     -96.23521335 Ry
     estimated scf accuracy    <          1.1E-09 Ry
     smearing contrib. (-TS)   =       0.00000000 Ry
     internal energy E=F+TS    =     -96.23521335 Ry

     The total energy is F=E-TS. E is the sum of the following terms:
     one-electron contribution =     -62.11192408 Ry
     hartree contribution      =      40.33239298 Ry
     xc contribution           =     -31.66721504 Ry
     ewald contribution        =     -42.78846721 Ry

     convergence has been achieved in  11 iterations

     Forces acting on atoms (cartesian axes, Ry/au):

     atom    1 type  2   force =    -0.00000310   -0.00000310   -0.00000310
     atom    2 type  2   force =     0.00000310    0.00000310   -0.00000310
     atom    3 type  2   force =     0.00000310   -0.00000310    0.00000310
     atom    4 type  2   force =    -0.00000310    0.00000310    0.00000310
     atom    5 type  1   force =    -0.00000212    0.00000894    0.00000289
     atom    6 type  1   force =     0.00000212   -0.00000894    0.00000289
     atom    7 type  1   force =     0.00000212    0.00000894   -0.00000289
     atom    8 type  1   force =    -0.00000212   -0.00000894   -0.00000289
     atom    9 type  1   force =     0.00000289   -0.00000212    0.00000894
     atom   10 type  1   force =     0.00000289    0.00000212   -0.00000894
     atom   11 type  1   force =    -0.00000289    0.00000212    0.00000894
     atom   12 type  1   force =    -0.00000289   -0.00000212   -0.00000894
     atom   13 type  1   force =     0.00000894    0.00000289   -0.00000212
     atom   14 type  1   force =    -0.00000894    0.00000289    0.00000212
     atom   15 type  1   force =     0.00000894   -0.00000289    0.00000212
     atom   16 type  1   force =    -0.00000894   -0.00000289   -0.00000212
     The non-local contrib.  to forces
     atom    1 type  2   force =     0.70035835    0.70035835    0.70035835
     atom    2 type  2   force =    -0.70035835   -0.70035835    0.70035835
     atom    3 type  2   force =    -0.70035835    0.70035835   -0.70035835
     atom    4 type  2   force =     0.70035835   -0.70035835   -0.70035835
     atom    5 type  1   force =    -0.07207650   -0.03359999    0.04922721
     atom    6 type  1   force =     0.07207650    0.03359999    0.04922721
     atom    7 type  1   force =     0.07207650   -0.03359999   -0.04922721
     atom    8 type  1   force =    -0.07207650    0.03359999   -0.04922721
     atom    9 type  1   force =     0.04922721   -0.07207650   -0.03359999
     atom   10 type  1   force =     0.04922721    0.07207650    0.03359999
     atom   11 type  1   force =    -0.04922721    0.07207650   -0.03359999
     atom   12 type  1   force =    -0.04922721   -0.07207650    0.03359999
     atom   13 type  1   force =    -0.03359999    0.04922721   -0.07207650
     atom   14 type  1   force =     0.03359999    0.04922721    0.07207650
     atom   15 type  1   force =    -0.03359999   -0.04922721    0.07207650
     atom   16 type  1   force =     0.03359999   -0.04922721   -0.07207650
     The ionic contribution  to forces
     atom    1 type  2   force =    -1.12218573   -1.12218573   -1.12218573
     atom    2 type  2   force =     1.12218573    1.12218573   -1.12218573
     atom    3 type  2   force =     1.12218573   -1.12218573    1.12218573
     atom    4 type  2   force =    -1.12218573    1.12218573    1.12218573
     atom    5 type  1   force =     1.86115973    0.96404061   -1.17107556
     atom    6 type  1   force =    -1.86115973   -0.96404061   -1.17107556
     atom    7 type  1   force =    -1.86115973    0.96404061    1.17107556
     atom    8 type  1   force =     1.86115973   -0.96404061    1.17107556
     atom    9 type  1   force =    -1.17107556    1.86115973    0.96404061
     atom   10 type  1   force =    -1.17107556   -1.86115973   -0.96404061
     atom   11 type  1   force =     1.17107556   -1.86115973    0.96404061
     atom   12 type  1   force =     1.17107556    1.86115973   -0.96404061
     atom   13 type  1   force =     0.96404061   -1.17107556    1.86115973
     atom   14 type  1   force =    -0.96404061   -1.17107556   -1.86115973
     atom   15 type  1   force =     0.96404061    1.17107556   -1.86115973
     atom   16 type  1   force =    -0.96404061    1.17107556    1.86115973
     The local contribution  to forces
     atom    1 type  2   force =     0.43157380    0.43157380    0.43157380
     atom    2 type  2   force =    -0.43157380   -0.43157380    0.43157380
     atom    3 type  2   force =    -0.43157380    0.43157380   -0.43157380
     atom    4 type  2   force =     0.43157380   -0.43157380   -0.43157380
     atom    5 type  1   force =    -1.78908370   -0.93043106    1.12184946
     atom    6 type  1   force =     1.78908370    0.93043106    1.12184946
     atom    7 type  1   force =     1.78908370   -0.93043106   -1.12184946
     atom    8 type  1   force =    -1.78908370    0.93043106   -1.12184946
     atom    9 type  1   force =     1.12184946   -1.78908370   -0.93043106
     atom   10 type  1   force =     1.12184946    1.78908370    0.93043106
     atom   11 type  1   force =    -1.12184946    1.78908370   -0.93043106
     atom   12 type  1   force =    -1.12184946   -1.78908370    0.93043106
     atom   13 type  1   force =    -0.93043106    1.12184946   -1.78908370
     atom   14 type  1   force =     0.93043106    1.12184946    1.78908370
     atom   15 type  1   force =    -0.93043106   -1.12184946    1.78908370
     atom   16 type  1   force =     0.93043106   -1.12184946   -1.78908370
     The core correction contribution to forces
     atom    1 type  2   force =    -0.00975701   -0.00975701   -0.00975701
     atom    2 type  2   force =     0.00975701    0.00975701   -0.00975701
     atom    3 type  2   force =     0.00975701   -0.00975701    0.00975701
     atom    4 type  2   force =    -0.00975701    0.00975701    0.00975701
     atom    5 type  1   force =     0.00000000    0.00000000    0.00000000
     atom    6 type  1   force =     0.00000000    0.00000000    0.00000000
     atom    7 type  1   force =     0.00000000    0.00000000    0.00000000
     atom    8 type  1   force =     0.00000000    0.00000000    0.00000000
     atom    9 type  1   force =     0.00000000    0.00000000    0.00000000
     atom   10 type  1   force =     0.00000000    0.00000000    0.00000000
     atom   11 type  1   force =     0.00000000    0.00000000    0.00000000
     atom   12 type  1   force =     0.00000000    0.00000000    0.00000000
     atom   13 type  1   force =     0.00000000    0.00000000    0.00000000
     atom   14 type  1   force =     0.00000000    0.00000000    0.00000000
     atom   15 type  1   force =     0.00000000    0.00000000    0.00000000
     atom   16 type  1   force =     0.00000000    0.00000000    0.00000000
     The Hubbard contrib.    to forces
     atom    1 type  2   force =     0.00000000    0.00000000    0.00000000
     atom    2 type  2   force =     0.00000000    0.00000000    0.00000000
     atom    3 type  2   force =     0.00000000    0.00000000    0.00000000
     atom    4 type  2   force =     0.00000000    0.00000000    0.00000000
     atom    5 type  1   force =     0.00000000    0.00000000    0.00000000
     atom    6 type  1   force =     0.00000000    0.00000000    0.00000000
     atom    7 type  1   force =     0.00000000    0.00000000    0.00000000
     atom    8 type  1   force =     0.00000000    0.00000000    0.00000000
     atom    9 type  1   force =     0.00000000    0.00000000    0.00000000
     atom   10 type  1   force =     0.00000000    0.00000000    0.00000000
     atom   11 type  1   force =     0.00000000    0.00000000    0.00000000
     atom   12 type  1   force =     0.00000000    0.00000000    0.00000000
     atom   13 type  1   force =     0.00000000    0.00000000    0.00000000
     atom   14 type  1   force =     0.00000000    0.00000000    0.00000000
     atom   15 type  1   force =     0.00000000    0.00000000    0.00000000
     atom   16 type  1   force =     0.00000000    0.00000000    0.00000000
     The SCF correction term to forces
     atom    1 type  2   force =     0.00000749    0.00000749    0.00000749
     atom    2 type  2   force =    -0.00000749   -0.00000749    0.00000749
     atom    3 type  2   force =    -0.00000749    0.00000749   -0.00000749
     atom    4 type  2   force =     0.00000749   -0.00000749   -0.00000749
     atom    5 type  1   force =    -0.00000165   -0.00000062    0.00000177
     atom    6 type  1   force =     0.00000165    0.00000062    0.00000177
     atom    7 type  1   force =     0.00000165   -0.00000062   -0.00000177
     atom    8 type  1   force =    -0.00000165    0.00000062   -0.00000177
     atom    9 type  1   force =     0.00000177   -0.00000165   -0.00000062
     atom   10 type  1   force =     0.00000177    0.00000165    0.00000062
     atom   11 type  1   force =    -0.00000177    0.00000165   -0.00000062
     atom   12 type  1   force =    -0.00000177   -0.00000165    0.00000062
     atom   13 type  1   force =    -0.00000062    0.00000177   -0.00000165
     atom   14 type  1   force =     0.00000062    0.00000177    0.00000165
     atom   15 type  1   force =    -0.00000062   -0.00000177    0.00000165
     atom   16 type  1   force =     0.00000062   -0.00000177   -0.00000165

     Total force =     0.000035     Total SCF correction =     0.000027
     SCF correction compared to forces is large: reduce conv_thr to get better values


     Computing stress (Cartesian axis) and pressure

          total   stress  (Ry/bohr**3)                   (kbar)     P=        0.02
   0.00000012   0.00000000   0.00000000            0.02        0.00        0.00
   0.00000000   0.00000012   0.00000000            0.00        0.02        0.00
   0.00000000   0.00000000   0.00000012            0.00        0.00        0.02

     kinetic stress (kbar)   6385.75      0.00      0.00
                                0.00   6385.75      0.00
                                0.00      0.00   6385.75

     local   stress (kbar)  -4707.21     -0.00      0.00
                               -0.00  -4707.21      0.00
                                0.00      0.00  -4707.21

     nonloc. stress (kbar)    -26.75      0.00      0.00
                                0.00    -26.75      0.00
                                0.00      0.00    -26.75

     hartree stress (kbar)   2113.82      0.00     -0.00
                                0.00   2113.82      0.00
                               -0.00      0.00   2113.82

     exc-cor stress (kbar)  -1092.20      0.00      0.00
                                0.00  -1092.20      0.00
                                0.00      0.00  -1092.20

     corecor stress (kbar)   -430.85     -0.00     -0.00
                               -0.00   -430.85     -0.00
                               -0.00     -0.00   -430.85

     ewald   stress (kbar)  -2242.54     -0.00     -0.00
                               -0.00  -2242.54     -0.00
                               -0.00     -0.00  -2242.54

     hubbard stress (kbar)      0.00      0.00      0.00
                                0.00      0.00      0.00
                                0.00      0.00      0.00

     DFT-D   stress (kbar)      0.00      0.00      0.00
                                0.00      0.00      0.00
                                0.00      0.00      0.00

     XDM     stress (kbar)      0.00      0.00      0.00
                                0.00      0.00      0.00
                                0.00      0.00      0.00

     dft-nl  stress (kbar)      0.00      0.00      0.00
                                0.00      0.00      0.00
                                0.00      0.00      0.00

     TS-vdW  stress (kbar)      0.00      0.00      0.00
                                0.00      0.00      0.00
                                0.00      0.00      0.00

     MDB     stress (kbar)      0.00      0.00      0.00
                                0.00      0.00      0.00
                                0.00      0.00      0.00

     3D-RISM stress (kbar)      0.00      0.00      0.00
                                0.00      0.00      0.00
                                0.00      0.00      0.00


     BFGS Geometry Optimization
     Energy error            =      0.0E+00 Ry
     Gradient error          =      8.9E-06 Ry/Bohr
     Cell gradient error     =      1.5E+02 kbar

     number of scf cycles    =   1
     number of bfgs steps    =   0

     enthalpy           new  =     -95.2811952882 Ry

     new trust radius        =       0.1559299202 bohr
     new conv_thr            =       0.0000000032 Ry

     new unit-cell volume =    865.87107 a.u.^3 (   128.30885 Ang^3 )
     density =      0.88162 g/cm^3

CELL_PARAMETERS (angstrom)
   5.043734401   0.000000000   0.000000000
   0.000000000   5.043734401   0.000000000
   0.000000000   0.000000000   5.043734401

ATOMIC_POSITIONS (crystal)
N             0.1965965626        0.1965965626        0.1965965626
N             0.3034034374        0.8034034374        0.6965965626
N             0.8034034374        0.6965965626        0.3034034374
N             0.6965965626        0.3034034374        0.8034034374
H             0.3510361211        0.2703632422        0.0960460663
H             0.1489638789        0.7296367578        0.5960460663
H             0.6489638789        0.7703632422        0.4039539337
H             0.8510361211        0.2296367578        0.9039539337
H             0.0960460663        0.3510361211        0.2703632422
H             0.5960460663        0.1489638789        0.7296367578
H             0.4039539337        0.6489638789        0.7703632422
H             0.9039539337        0.8510361211        0.2296367578
H             0.2703632422        0.0960460663        0.3510361211
H             0.7296367578        0.5960460663        0.1489638789
H             0.7703632422        0.4039539337        0.6489638789
H             0.2296367578        0.9039539337        0.8510361211



     Writing config-only to output data dir ./out/AC_Ph_1.save/
     NEW-OLD atomic charge density approx. for the potential

     Check: negative core charge=   -0.000002
     extrapolated charge   29.42282, renormalised to   32.00000

     total cpu time spent up to now is       48.8 secs

     Self-consistent Calculation

     iteration #  1     ecut=    60.00 Ry     beta= 0.40
     Davidson diagonalization with overlap

---- Real-time Memory Report at c_bands before calling an iterative solver
            56 MiB given to the printing process from OS
             0 MiB allocation reported by mallinfo(arena+hblkhd)
         23001 MiB available memory on the node where the printing process lives
------------------
     c_bands:  1 eigenvalues not converged
     c_bands:  1 eigenvalues not converged
     ethr =  1.00E-06,  avg # of iterations = 14.1

     total cpu time spent up to now is       57.8 secs

     total energy              =     -95.63078809 Ry
     estimated scf accuracy    <       0.53746272 Ry

     iteration #  2     ecut=    60.00 Ry     beta= 0.40
     Davidson diagonalization with overlap

---- Real-time Memory Report at c_bands before calling an iterative solver
            56 MiB given to the printing process from OS
             0 MiB allocation reported by mallinfo(arena+hblkhd)
         22992 MiB available memory on the node where the printing process lives
------------------
     ethr =  1.68E-03,  avg # of iterations =  3.0

     total cpu time spent up to now is       61.7 secs

     total energy              =     -96.25361934 Ry
     estimated scf accuracy    <       0.58245116 Ry

     iteration #  3     ecut=    60.00 Ry     beta= 0.40
     Davidson diagonalization with overlap

---- Real-time Memory Report at c_bands before calling an iterative solver
            56 MiB given to the printing process from OS
             0 MiB allocation reported by mallinfo(arena+hblkhd)
         22991 MiB available memory on the node where the printing process lives
------------------
     ethr =  1.68E-03,  avg # of iterations =  1.0

     total cpu time spent up to now is       64.1 secs

     total energy              =     -96.20393443 Ry
     estimated scf accuracy    <       0.18980825 Ry

     iteration #  4     ecut=    60.00 Ry     beta= 0.40
     Davidson diagonalization with overlap

---- Real-time Memory Report at c_bands before calling an iterative solver
            56 MiB given to the printing process from OS
             0 MiB allocation reported by mallinfo(arena+hblkhd)
         22991 MiB available memory on the node where the printing process lives
------------------
     ethr =  5.93E-04,  avg # of iterations =  2.2

     total cpu time spent up to now is       67.1 secs

     total energy              =     -96.21537256 Ry
     estimated scf accuracy    <       0.01628735 Ry

     iteration #  5     ecut=    60.00 Ry     beta= 0.40
     Davidson diagonalization with overlap

---- Real-time Memory Report at c_bands before calling an iterative solver
            56 MiB given to the printing process from OS
             0 MiB allocation reported by mallinfo(arena+hblkhd)
         22990 MiB available memory on the node where the printing process lives
------------------
     ethr =  5.09E-05,  avg # of iterations =  3.8

     total cpu time spent up to now is       70.7 secs

     total energy              =     -96.22185326 Ry
     estimated scf accuracy    <       0.00176507 Ry

     iteration #  6     ecut=    60.00 Ry     beta= 0.40
     Davidson diagonalization with overlap

---- Real-time Memory Report at c_bands before calling an iterative solver
            56 MiB given to the printing process from OS
             0 MiB allocation reported by mallinfo(arena+hblkhd)
         22991 MiB available memory on the node where the printing process lives
------------------
     ethr =  5.52E-06,  avg # of iterations =  4.5

     total cpu time spent up to now is       74.1 secs

     total energy              =     -96.22018377 Ry
     estimated scf accuracy    <       0.00425714 Ry

     iteration #  7     ecut=    60.00 Ry     beta= 0.40
     Davidson diagonalization with overlap

---- Real-time Memory Report at c_bands before calling an iterative solver
            56 MiB given to the printing process from OS
             0 MiB allocation reported by mallinfo(arena+hblkhd)
         22991 MiB available memory on the node where the printing process lives
------------------
     ethr =  5.52E-06,  avg # of iterations =  2.0

     total cpu time spent up to now is       77.4 secs

     total energy              =     -96.22070720 Ry
     estimated scf accuracy    <       0.00017423 Ry

     iteration #  8     ecut=    60.00 Ry     beta= 0.40
     Davidson diagonalization with overlap

---- Real-time Memory Report at c_bands before calling an iterative solver
            56 MiB given to the printing process from OS
             0 MiB allocation reported by mallinfo(arena+hblkhd)
         22992 MiB available memory on the node where the printing process lives
------------------
     ethr =  5.44E-07,  avg # of iterations =  1.1

     total cpu time spent up to now is       79.9 secs

     total energy              =     -96.22070240 Ry
     estimated scf accuracy    <       0.00012837 Ry

     iteration #  9     ecut=    60.00 Ry     beta= 0.40
     Davidson diagonalization with overlap

---- Real-time Memory Report at c_bands before calling an iterative solver
            56 MiB given to the printing process from OS
             0 MiB allocation reported by mallinfo(arena+hblkhd)
         22992 MiB available memory on the node where the printing process lives
------------------
     ethr =  4.01E-07,  avg # of iterations =  1.0

     total cpu time spent up to now is       82.3 secs

     total energy              =     -96.22073723 Ry
     estimated scf accuracy    <       0.00009853 Ry

     iteration # 10     ecut=    60.00 Ry     beta= 0.40
     Davidson diagonalization with overlap

---- Real-time Memory Report at c_bands before calling an iterative solver
            56 MiB given to the printing process from OS
             0 MiB allocation reported by mallinfo(arena+hblkhd)
         22991 MiB available memory on the node where the printing process lives
------------------
     ethr =  3.08E-07,  avg # of iterations =  1.0

     total cpu time spent up to now is       84.7 secs

     total energy              =     -96.22069739 Ry
     estimated scf accuracy    <       0.00020688 Ry

     iteration # 11     ecut=    60.00 Ry     beta= 0.40
     Davidson diagonalization with overlap

---- Real-time Memory Report at c_bands before calling an iterative solver
            57 MiB given to the printing process from OS
             0 MiB allocation reported by mallinfo(arena+hblkhd)
         22990 MiB available memory on the node where the printing process lives
------------------
     ethr =  3.08E-07,  avg # of iterations =  1.0

     total cpu time spent up to now is       87.1 secs

     total energy              =     -96.22069409 Ry
     estimated scf accuracy    <       0.00009521 Ry

     iteration # 12     ecut=    60.00 Ry     beta= 0.40
     Davidson diagonalization with overlap

---- Real-time Memory Report at c_bands before calling an iterative solver
            57 MiB given to the printing process from OS
             0 MiB allocation reported by mallinfo(arena+hblkhd)
         22990 MiB available memory on the node where the printing process lives
------------------
     ethr =  2.98E-07,  avg # of iterations =  1.0

     total cpu time spent up to now is       89.6 secs

     total energy              =     -96.22068533 Ry
     estimated scf accuracy    <       0.00006728 Ry

     iteration # 13     ecut=    60.00 Ry     beta= 0.40
     Davidson diagonalization with overlap

---- Real-time Memory Report at c_bands before calling an iterative solver
            57 MiB given to the printing process from OS
             0 MiB allocation reported by mallinfo(arena+hblkhd)
         22990 MiB available memory on the node where the printing process lives
------------------
     ethr =  2.10E-07,  avg # of iterations =  1.0

     total cpu time spent up to now is       92.0 secs

     total energy              =     -96.22068123 Ry
     estimated scf accuracy    <       0.00003702 Ry

     iteration # 14     ecut=    60.00 Ry     beta= 0.40
     Davidson diagonalization with overlap

---- Real-time Memory Report at c_bands before calling an iterative solver
            57 MiB given to the printing process from OS
             0 MiB allocation reported by mallinfo(arena+hblkhd)
         22990 MiB available memory on the node where the printing process lives
------------------
     ethr =  1.16E-07,  avg # of iterations =  1.0

     total cpu time spent up to now is       94.4 secs

     total energy              =     -96.22067973 Ry
     estimated scf accuracy    <       0.00002052 Ry

     iteration # 15     ecut=    60.00 Ry     beta= 0.40
     Davidson diagonalization with overlap

---- Real-time Memory Report at c_bands before calling an iterative solver
            57 MiB given to the printing process from OS
             0 MiB allocation reported by mallinfo(arena+hblkhd)
         22991 MiB available memory on the node where the printing process lives
------------------
     ethr =  6.41E-08,  avg # of iterations =  1.0

     total cpu time spent up to now is       96.8 secs

     total energy              =     -96.22067723 Ry
     estimated scf accuracy    <       0.00001385 Ry

     iteration # 16     ecut=    60.00 Ry     beta= 0.40
     Davidson diagonalization with overlap

---- Real-time Memory Report at c_bands before calling an iterative solver
            57 MiB given to the printing process from OS
             0 MiB allocation reported by mallinfo(arena+hblkhd)
         22991 MiB available memory on the node where the printing process lives
------------------
     ethr =  4.33E-08,  avg # of iterations =  1.0

     total cpu time spent up to now is       99.2 secs

     total energy              =     -96.22067520 Ry
     estimated scf accuracy    <       0.00000540 Ry

     iteration # 17     ecut=    60.00 Ry     beta= 0.40
     Davidson diagonalization with overlap

---- Real-time Memory Report at c_bands before calling an iterative solver
            57 MiB given to the printing process from OS
             0 MiB allocation reported by mallinfo(arena+hblkhd)
         22991 MiB available memory on the node where the printing process lives
------------------
     ethr =  1.69E-08,  avg # of iterations =  2.0

     total cpu time spent up to now is      102.4 secs

     total energy              =     -96.22067624 Ry
     estimated scf accuracy    <       0.00000002 Ry

     iteration # 18     ecut=    60.00 Ry     beta= 0.40
     Davidson diagonalization with overlap

---- Real-time Memory Report at c_bands before calling an iterative solver
            57 MiB given to the printing process from OS
             0 MiB allocation reported by mallinfo(arena+hblkhd)
         22991 MiB available memory on the node where the printing process lives
------------------
     ethr =  7.42E-11,  avg # of iterations =  2.2

     total cpu time spent up to now is      105.7 secs

     total energy              =     -96.22067625 Ry
     estimated scf accuracy    <          5.1E-09 Ry

     iteration # 19     ecut=    60.00 Ry     beta= 0.40
     Davidson diagonalization with overlap

---- Real-time Memory Report at c_bands before calling an iterative solver
            57 MiB given to the printing process from OS
             0 MiB allocation reported by mallinfo(arena+hblkhd)
         22991 MiB available memory on the node where the printing process lives
------------------
     ethr =  1.60E-11,  avg # of iterations =  1.0

     total cpu time spent up to now is      108.1 secs

     End of self-consistent calculation

          k = 0.0000 0.0000 0.0000 (  7249 PWs)   bands (ev):

   -17.3696 -16.6347 -16.6347 -16.6347  -7.5307  -7.5307  -7.5307  -6.6397
    -6.6397  -6.3941  -6.3941  -6.3941  -2.0414  -2.0414  -2.0414  -1.4861
     3.0696   6.3122   6.3122   6.3122

     occupation numbers 
     1.0000   1.0000   1.0000   1.0000   1.0000   1.0000   1.0000   1.0000
     1.0000   1.0000   1.0000   1.0000   1.0000   1.0000   1.0000   1.0000
     0.0000   0.0000   0.0000   0.0000

          k = 0.0000 0.0000 0.1466 (  7296 PWs)   bands (ev):

   -17.3392 -16.7099 -16.6303 -16.5978  -7.5481  -7.5243  -7.4467  -6.6816
    -6.6162  -6.5191  -6.4187  -6.3122  -2.1505  -2.1010  -1.9360  -1.5102
     3.2817   6.1358   6.4878   6.5721

     occupation numbers 
     1.0000   1.0000   1.0000   1.0000   1.0000   1.0000   1.0000   1.0000
     1.0000   1.0000   1.0000   1.0000   1.0000   1.0000   1.0000   1.0000
     0.0000   0.0000   0.0000   0.0000

          k = 0.0000 0.0000 0.2932 (  7328 PWs)   bands (ev):

   -17.2526 -16.8268 -16.6186 -16.5868  -7.5221  -7.5074  -7.2977  -6.7898
    -6.6353  -6.5661  -6.4797  -6.2988  -2.2473  -2.2189  -1.8412  -1.5774
     3.8475   5.8955   6.8830   6.9410

     occupation numbers 
     1.0000   1.0000   1.0000   1.0000   1.0000   1.0000   1.0000   1.0000
     1.0000   1.0000   1.0000   1.0000   1.0000   1.0000   1.0000   1.0000
     0.0000   0.0000   0.0000   0.0000

          k = 0.0000 0.0000 0.4398 (  7344 PWs)   bands (ev):

   -17.1233 -16.9727 -16.6038 -16.5912  -7.4923  -7.4897  -7.1135  -6.9374
    -6.6800  -6.6251  -6.4345  -6.3492  -2.3068  -2.3007  -1.7539  -1.6655
     4.6062   5.3616   7.2240   7.3574

     occupation numbers 
     1.0000   1.0000   1.0000   1.0000   1.0000   1.0000   1.0000   1.0000
     1.0000   1.0000   1.0000   1.0000   1.0000   1.0000   1.0000   1.0000
     0.0000   0.0000   0.0000   0.0000

          k = 0.0000 0.1466 0.1466 (  7331 PWs)   bands (ev):

   -17.3099 -16.7348 -16.6466 -16.5888  -7.5333  -7.5260  -7.4032  -6.7011
    -6.6364  -6.5176  -6.4903  -6.2731  -2.1822  -2.1595  -1.8911  -1.5326
     3.4766   6.1482   6.5221   6.7676

     occupation numbers 
     1.0000   1.0000   1.0000   1.0000   1.0000   1.0000   1.0000   1.0000
     1.0000   1.0000   1.0000   1.0000   1.0000   1.0000   1.0000   1.0000
     0.0000   0.0000   0.0000   0.0000

          k = 0.0000 0.1466 0.2932 (  7325 PWs)   bands (ev):

   -17.2267 -16.8269 -16.6430 -16.5898  -7.5212  -7.5055  -7.2855  -6.7727
    -6.7094  -6.5754  -6.4813  -6.2626  -2.2530  -2.2480  -1.8181  -1.5924
     4.0053   6.0144   6.7025   7.1795

     occupation numbers 
     1.0000   1.0000   1.0000   1.0000   1.0000   1.0000   1.0000   1.0000
     1.0000   1.0000   1.0000   1.0000   1.0000   1.0000   1.0000   1.0000
     0.0000   0.0000   0.0000   0.0000

          k = 0.0000 0.1466 0.4398 (  7354 PWs)   bands (ev):

   -17.1031 -16.9607 -16.6240 -16.6036  -7.5066  -7.4947  -7.1167  -6.9294
    -6.7258  -6.6610  -6.3958  -6.3104  -2.3082  -2.3016  -1.7451  -1.6691
     4.7333   5.4835   7.0601   7.3832

     occupation numbers 
     1.0000   1.0000   1.0000   1.0000   1.0000   1.0000   1.0000   1.0000
     1.0000   1.0000   1.0000   1.0000   1.0000   1.0000   1.0000   1.0000
     0.0000   0.0000   0.0000   0.0000

          k = 0.0000 0.2932 0.2932 (  7349 PWs)   bands (ev):

   -17.1537 -16.8500 -16.6777 -16.6083  -7.5253  -7.4879  -7.2601  -6.8546
    -6.7448  -6.5835  -6.4456  -6.2508  -2.3006  -2.2621  -1.7762  -1.6306
     4.4437   6.1471   6.6448   7.4257

     occupation numbers 
     1.0000   1.0000   1.0000   1.0000   1.0000   1.0000   1.0000   1.0000
     1.0000   1.0000   1.0000   1.0000   1.0000   1.0000   1.0000   1.0000
     0.0000   0.0000   0.0000   0.0000

          k = 0.0000 0.2932 0.4398 (  7340 PWs)   bands (ev):

   -17.0479 -16.9335 -16.6714 -16.6398  -7.5181  -7.5018  -7.1620  -7.0116
    -6.7091  -6.6378  -6.3596  -6.2842  -2.3129  -2.2949  -1.7280  -1.6788
     5.0891   5.8137   6.7087   7.1810

     occupation numbers 
     1.0000   1.0000   1.0000   1.0000   1.0000   1.0000   1.0000   1.0000
     1.0000   1.0000   1.0000   1.0000   1.0000   1.0000   1.0000   1.0000
     0.0000   0.0000   0.0000   0.0000

          k = 0.0000 0.4398 0.4398 (  7349 PWs)   bands (ev):

   -16.9757 -16.9260 -16.7061 -16.6857  -7.5105  -7.4978  -7.2035  -7.1439
    -6.6173  -6.5777  -6.3547  -6.3157  -2.3052  -2.2949  -1.7111  -1.6937
     5.6033   6.1315   6.3368   6.7678

     occupation numbers 
     1.0000   1.0000   1.0000   1.0000   1.0000   1.0000   1.0000   1.0000
     1.0000   1.0000   1.0000   1.0000   1.0000   1.0000   1.0000   1.0000
     0.0000   0.0000   0.0000   0.0000

          k = 0.1466 0.1466 0.1466 (  7349 PWs)   bands (ev):

   -17.2818 -16.7506 -16.6611 -16.5888  -7.5330  -7.5166  -7.3765  -6.7196
    -6.6283  -6.5925  -6.4835  -6.2460  -2.2067  -2.1965  -1.8590  -1.5533
     3.6550   6.1708   6.5902   6.9022

     occupation numbers 
     1.0000   1.0000   1.0000   1.0000   1.0000   1.0000   1.0000   1.0000
     1.0000   1.0000   1.0000   1.0000   1.0000   1.0000   1.0000   1.0000
     0.0000   0.0000   0.0000   0.0000

          k = 0.1466 0.1466 0.2932 (  7322 PWs)   bands (ev):

   -17.2019 -16.8260 -16.6615 -16.5977  -7.5353  -7.4959  -7.2967  -6.7891
    -6.7273  -6.5897  -6.4575  -6.2384  -2.2778  -2.2386  -1.8016  -1.6070
     4.1452   6.0608   6.7821   7.2388

     occupation numbers 
     1.0000   1.0000   1.0000   1.0000   1.0000   1.0000   1.0000   1.0000
     1.0000   1.0000   1.0000   1.0000   1.0000   1.0000   1.0000   1.0000
     0.0000   0.0000   0.0000   0.0000

          k = 0.1466 0.1466 0.4398 (  7345 PWs)   bands (ev):

   -17.0838 -16.9491 -16.6412 -16.6170  -7.5238  -7.5017  -7.1597  -6.9780
    -6.7011  -6.6280  -6.3778  -6.2882  -2.3079  -2.2864  -1.7408  -1.6747
     4.8328   5.5542   7.1022   7.4360

     occupation numbers 
     1.0000   1.0000   1.0000   1.0000   1.0000   1.0000   1.0000   1.0000
     1.0000   1.0000   1.0000   1.0000   1.0000   1.0000   1.0000   1.0000
     0.0000   0.0000   0.0000   0.0000

          k = 0.1466 0.2932 0.2932 (  7354 PWs)   bands (ev):

   -17.1320 -16.8451 -16.6916 -16.6202  -7.5461  -7.5020  -7.2971  -6.9206
    -6.7138  -6.5507  -6.4174  -6.2201  -2.2988  -2.2449  -1.7672  -1.6438
     4.5438   6.1735   6.6682   7.4273

     occupation numbers 
     1.0000   1.0000   1.0000   1.0000   1.0000   1.0000   1.0000   1.0000
     1.0000   1.0000   1.0000   1.0000   1.0000   1.0000   1.0000   1.0000
     0.0000   0.0000   0.0000   0.0000

          k = 0.1466 0.2932 0.4398 (  7349 PWs)   bands (ev):

   -17.0310 -16.9226 -16.6842 -16.6526  -7.5455  -7.5262  -7.2310  -7.0929
    -6.6445  -6.5711  -6.3337  -6.2535  -2.2929  -2.2675  -1.7296  -1.6882
     5.1413   5.8261   6.6952   7.0923

     occupation numbers 
     1.0000   1.0000   1.0000   1.0000   1.0000   1.0000   1.0000   1.0000
     1.0000   1.0000   1.0000   1.0000   1.0000   1.0000   1.0000   1.0000
     0.0000   0.0000   0.0000   0.0000

          k = 0.1466 0.4398 0.4398 (  7329 PWs)   bands (ev):

   -16.9620 -16.9145 -16.7166 -16.6966  -7.5454  -7.5325  -7.2842  -7.2282
    -6.5443  -6.5022  -6.3192  -6.2762  -2.2692  -2.2566  -1.7198  -1.7056
     5.6023   6.0999   6.2712   6.6461

     occupation numbers 
     1.0000   1.0000   1.0000   1.0000   1.0000   1.0000   1.0000   1.0000
     1.0000   1.0000   1.0000   1.0000   1.0000   1.0000   1.0000   1.0000
     0.0000   0.0000   0.0000   0.0000

          k = 0.2932 0.2932 0.2932 (  7331 PWs)   bands (ev):

   -17.0714 -16.8455 -16.7206 -16.6493  -7.5720  -7.5426  -7.3590  -7.0840
    -6.6273  -6.4519  -6.3795  -6.1861  -2.2773  -2.2146  -1.7519  -1.6779
     4.8402   6.2084   6.6285   6.9464

     occupation numbers 
     1.0000   1.0000   1.0000   1.0000   1.0000   1.0000   1.0000   1.0000
     1.0000   1.0000   1.0000   1.0000   1.0000   1.0000   1.0000   1.0000
     0.0000   0.0000   0.0000   0.0000

          k = 0.2932 0.2932 0.4398 (  7361 PWs)   bands (ev):

   -16.9850 -16.8963 -16.7182 -16.6857  -7.5863  -7.5744  -7.3565  -7.2511
    -6.5211  -6.4410  -6.2922  -6.2085  -2.2355  -2.2058  -1.7390  -1.7156
     5.3125   5.8892   6.5430   6.7053

     occupation numbers 
     1.0000   1.0000   1.0000   1.0000   1.0000   1.0000   1.0000   1.0000
     1.0000   1.0000   1.0000   1.0000   1.0000   1.0000   1.0000   1.0000
     0.0000   0.0000   0.0000   0.0000

          k = 0.2932 0.4398 0.4398 (  7346 PWs)   bands (ev):

   -16.9245 -16.8839 -16.7463 -16.7264  -7.6044  -7.5970  -7.4331  -7.3882
    -6.4085  -6.3606  -6.2573  -6.2089  -2.1714  -2.1570  -1.7539  -1.7475
     5.6277   6.0232   6.1217   6.3313

     occupation numbers 
     1.0000   1.0000   1.0000   1.0000   1.0000   1.0000   1.0000   1.0000
     1.0000   1.0000   1.0000   1.0000   1.0000   1.0000   1.0000   1.0000
     0.0000   0.0000   0.0000   0.0000

          k = 0.4398 0.4398 0.4398 (  7355 PWs)   bands (ev):

   -16.8750 -16.8516 -16.7816 -16.7661  -7.6306  -7.6252  -7.5413  -7.5188
    -6.2961  -6.2574  -6.2245  -6.1859  -2.0551  -2.0464  -1.8152  -1.8145
     5.7414   5.9556   5.9916   6.0020

     occupation numbers 
     1.0000   1.0000   1.0000   1.0000   1.0000   1.0000   1.0000   1.0000
     1.0000   1.0000   1.0000   1.0000   1.0000   1.0000   1.0000   1.0000
     0.0000   0.0000   0.0000   0.0000

          k = 0.0000 0.2932 0.1466 (  7325 PWs)   bands (ev):

   -17.2267 -16.8269 -16.6430 -16.5898  -7.5266  -7.4942  -7.2948  -6.7978
    -6.6710  -6.5709  -6.4894  -6.2692  -2.2661  -2.2326  -1.8203  -1.5923
     4.0039   5.9667   6.9086   7.0473

     occupation numbers 
     1.0000   1.0000   1.0000   1.0000   1.0000   1.0000   1.0000   1.0000
     1.0000   1.0000   1.0000   1.0000   1.0000   1.0000   1.0000   1.0000
     0.0000   0.0000   0.0000   0.0000

          k = 0.0000 0.4398 0.1466 (  7354 PWs)   bands (ev):

   -17.1031 -16.9607 -16.6240 -16.6036  -7.5063  -7.4853  -7.1391  -6.9571
    -6.6887  -6.6196  -6.4188  -6.3262  -2.3123  -2.2937  -1.7474  -1.6698
     4.7244   5.4537   7.3452   7.3747

     occupation numbers 
     1.0000   1.0000   1.0000   1.0000   1.0000   1.0000   1.0000   1.0000
     1.0000   1.0000   1.0000   1.0000   1.0000   1.0000   1.0000   1.0000
     0.0000   0.0000   0.0000   0.0000

          k = 0.0000 0.4398 0.2932 (  7340 PWs)   bands (ev):

   -17.0479 -16.9335 -16.6714 -16.6398  -7.5154  -7.4901  -7.1885  -7.0387
    -6.6711  -6.5892  -6.3897  -6.3025  -2.3127  -2.2898  -1.7309  -1.6801
     5.0672   5.7242   7.0239   7.4037

     occupation numbers 
     1.0000   1.0000   1.0000   1.0000   1.0000   1.0000   1.0000   1.0000
     1.0000   1.0000   1.0000   1.0000   1.0000   1.0000   1.0000   1.0000
     0.0000   0.0000   0.0000   0.0000

          k =-0.1466 0.4398 0.2932 (  7349 PWs)   bands (ev):

   -17.0310 -16.9226 -16.6842 -16.6526  -7.5440  -7.5201  -7.2425  -7.1030
    -6.6288  -6.5484  -6.3497  -6.2625  -2.2923  -2.2650  -1.7312  -1.6889
     5.1275   5.7687   6.8813   7.1944

     occupation numbers 
     1.0000   1.0000   1.0000   1.0000   1.0000   1.0000   1.0000   1.0000
     1.0000   1.0000   1.0000   1.0000   1.0000   1.0000   1.0000   1.0000
     0.0000   0.0000   0.0000   0.0000

     the Fermi energy is     2.2346 ev

!    total energy              =     -96.22067625 Ry
     estimated scf accuracy    <          2.1E-09 Ry
     smearing contrib. (-TS)   =      -0.00000000 Ry
     internal energy E=F+TS    =     -96.22067625 Ry

     The total energy is F=E-TS. E is the sum of the following terms:
     one-electron contribution =     -59.99706448 Ry
     hartree contribution      =      39.65116958 Ry
     xc contribution           =     -31.96709334 Ry
     ewald contribution        =     -43.90768802 Ry

     convergence has been achieved in  19 iterations

     Forces acting on atoms (cartesian axes, Ry/au):

     atom    1 type  2   force =    -0.02260534   -0.02260534   -0.02260534
     atom    2 type  2   force =     0.02260534    0.02260534   -0.02260534
     atom    3 type  2   force =     0.02260534   -0.02260534    0.02260534
     atom    4 type  2   force =    -0.02260534    0.02260534    0.02260534
     atom    5 type  1   force =     0.03328902    0.01524880   -0.02447687
     atom    6 type  1   force =    -0.03328902   -0.01524880   -0.02447687
     atom    7 type  1   force =    -0.03328902    0.01524880    0.02447687
     atom    8 type  1   force =     0.03328902   -0.01524880    0.02447687
     atom    9 type  1   force =    -0.02447687    0.03328902    0.01524880
     atom   10 type  1   force =    -0.02447687   -0.03328902   -0.01524880
     atom   11 type  1   force =     0.02447687   -0.03328902    0.01524880
     atom   12 type  1   force =     0.02447687    0.03328902   -0.01524880
     atom   13 type  1   force =     0.01524880   -0.02447687    0.03328902
     atom   14 type  1   force =    -0.01524880   -0.02447687   -0.03328902
     atom   15 type  1   force =     0.01524880    0.02447687   -0.03328902
     atom   16 type  1   force =    -0.01524880    0.02447687    0.03328902
     The non-local contrib.  to forces
     atom    1 type  2   force =     0.68404417    0.68404417    0.68404417
     atom    2 type  2   force =    -0.68404417   -0.68404417    0.68404417
     atom    3 type  2   force =    -0.68404417    0.68404417   -0.68404417
     atom    4 type  2   force =     0.68404417   -0.68404417   -0.68404417
     atom    5 type  1   force =    -0.07839277   -0.03663099    0.05324809
     atom    6 type  1   force =     0.07839277    0.03663099    0.05324809
     atom    7 type  1   force =     0.07839277   -0.03663099   -0.05324809
     atom    8 type  1   force =    -0.07839277    0.03663099   -0.05324809
     atom    9 type  1   force =     0.05324809   -0.07839277   -0.03663099
     atom   10 type  1   force =     0.05324809    0.07839277    0.03663099
     atom   11 type  1   force =    -0.05324809    0.07839277   -0.03663099
     atom   12 type  1   force =    -0.05324809   -0.07839277    0.03663099
     atom   13 type  1   force =    -0.03663099    0.05324809   -0.07839277
     atom   14 type  1   force =     0.03663099    0.05324809    0.07839277
     atom   15 type  1   force =    -0.03663099   -0.05324809    0.07839277
     atom   16 type  1   force =     0.03663099   -0.05324809   -0.07839277
     The ionic contribution  to forces
     atom    1 type  2   force =    -1.18167486   -1.18167486   -1.18167486
     atom    2 type  2   force =     1.18167486    1.18167486   -1.18167486
     atom    3 type  2   force =     1.18167486   -1.18167486    1.18167486
     atom    4 type  2   force =    -1.18167486    1.18167486    1.18167486
     atom    5 type  1   force =     1.95978640    1.01514275   -1.23312635
     atom    6 type  1   force =    -1.95978640   -1.01514275   -1.23312635
     atom    7 type  1   force =    -1.95978640    1.01514275    1.23312635
     atom    8 type  1   force =     1.95978640   -1.01514275    1.23312635
     atom    9 type  1   force =    -1.23312635    1.95978640    1.01514275
     atom   10 type  1   force =    -1.23312635   -1.95978640   -1.01514275
     atom   11 type  1   force =     1.23312635   -1.95978640    1.01514275
     atom   12 type  1   force =     1.23312635    1.95978640   -1.01514275
     atom   13 type  1   force =     1.01514275   -1.23312635    1.95978640
     atom   14 type  1   force =    -1.01514275   -1.23312635   -1.95978640
     atom   15 type  1   force =     1.01514275    1.23312635   -1.95978640
     atom   16 type  1   force =    -1.01514275    1.23312635    1.95978640
     The local contribution  to forces
     atom    1 type  2   force =     0.48402858    0.48402858    0.48402858
     atom    2 type  2   force =    -0.48402858   -0.48402858    0.48402858
     atom    3 type  2   force =    -0.48402858    0.48402858   -0.48402858
     atom    4 type  2   force =     0.48402858   -0.48402858   -0.48402858
     atom    5 type  1   force =    -1.84810042   -0.96326113    1.15539816
     atom    6 type  1   force =     1.84810042    0.96326113    1.15539816
     atom    7 type  1   force =     1.84810042   -0.96326113   -1.15539816
     atom    8 type  1   force =    -1.84810042    0.96326113   -1.15539816
     atom    9 type  1   force =     1.15539816   -1.84810042   -0.96326113
     atom   10 type  1   force =     1.15539816    1.84810042    0.96326113
     atom   11 type  1   force =    -1.15539816    1.84810042   -0.96326113
     atom   12 type  1   force =    -1.15539816   -1.84810042    0.96326113
     atom   13 type  1   force =    -0.96326113    1.15539816   -1.84810042
     atom   14 type  1   force =     0.96326113    1.15539816    1.84810042
     atom   15 type  1   force =    -0.96326113   -1.15539816    1.84810042
     atom   16 type  1   force =     0.96326113   -1.15539816   -1.84810042
     The core correction contribution to forces
     atom    1 type  2   force =    -0.00901130   -0.00901130   -0.00901130
     atom    2 type  2   force =     0.00901130    0.00901130   -0.00901130
     atom    3 type  2   force =     0.00901130   -0.00901130    0.00901130
     atom    4 type  2   force =    -0.00901130    0.00901130    0.00901130
     atom    5 type  1   force =     0.00000000    0.00000000    0.00000000
     atom    6 type  1   force =     0.00000000    0.00000000    0.00000000
[...]
    -3.3500  -3.2012  -2.9992  -2.8964   0.8432   0.9488   1.3398   1.3765
    10.4417  10.6818  11.1319  11.3392

     occupation numbers 
     1.0000   1.0000   1.0000   1.0000   1.0000   1.0000   1.0000   1.0000
     1.0000   1.0000   1.0000   1.0000   1.0000   1.0000   1.0000   1.0000
     0.0000   0.0000   0.0000   0.0000

          k = 0.3441 0.3441 0.3441 (  4230 PWs)   bands (ev):

   -14.4617 -13.5208 -13.4792 -13.4444  -5.5000  -5.4139  -5.1622  -4.5649
    -3.5834  -3.3006  -2.7853  -2.6537   0.5872   1.1615   1.3669   1.5001
     9.5073   9.8564  10.5153  11.2593

     occupation numbers 
     1.0000   1.0000   1.0000   1.0000   1.0000   1.0000   1.0000   1.0000
     1.0000   1.0000   1.0000   1.0000   1.0000   1.0000   1.0000   1.0000
     0.0000   0.0000   0.0000   0.0000

          k = 0.3441 0.3441 0.5162 (  4223 PWs)   bands (ev):

   -14.1610 -13.8130 -13.4646 -13.4489  -5.5822  -5.5343  -5.2486  -4.9862
    -3.2663  -3.1303  -2.7204  -2.6455   0.8168   1.0761   1.4283   1.4870
     9.8380  10.1657  10.7808  11.0944

     occupation numbers 
     1.0000   1.0000   1.0000   1.0000   1.0000   1.0000   1.0000   1.0000
     1.0000   1.0000   1.0000   1.0000   1.0000   1.0000   1.0000   1.0000
     0.0000   0.0000   0.0000   0.0000

          k = 0.3441 0.5162 0.5162 (  4201 PWs)   bands (ev):

   -13.9314 -13.7040 -13.6517 -13.5481  -5.6912  -5.6346  -5.5212  -5.3681
    -2.9354  -2.8500  -2.6760  -2.6139   1.0512   1.1845   1.4787   1.5174
     9.9226  10.2077  10.3989  10.5518

     occupation numbers 
     1.0000   1.0000   1.0000   1.0000   1.0000   1.0000   1.0000   1.0000
     1.0000   1.0000   1.0000   1.0000   1.0000   1.0000   1.0000   1.0000
     0.0000   0.0000   0.0000   0.0000

          k = 0.5162 0.5162 0.5162 (  4194 PWs)   bands (ev):

   -13.7886 -13.6666 -13.6480 -13.6339  -5.8539  -5.8522  -5.8020  -5.7165
    -2.6430  -2.5871  -2.5345  -2.4860   1.3149   1.3990   1.5528   1.5892
     9.6861   9.8600   9.9167   9.9510

     occupation numbers 
     1.0000   1.0000   1.0000   1.0000   1.0000   1.0000   1.0000   1.0000
     1.0000   1.0000   1.0000   1.0000   1.0000   1.0000   1.0000   1.0000
     0.0000   0.0000   0.0000   0.0000

          k = 0.0000 0.3441 0.1721 (  4201 PWs)   bands (ev):

   -14.9644 -13.6183 -13.2006 -13.0997  -5.2302  -5.1751  -4.8574  -4.1491
    -3.6078  -3.4432  -3.1819  -2.9827   0.7364   1.0704   1.2471   1.4250
     8.8265   9.0117   9.5933   9.8151

     occupation numbers 
     1.0000   1.0000   1.0000   1.0000   1.0000   1.0000   1.0000   1.0000
     1.0000   1.0000   1.0000   1.0000   1.0000   1.0000   1.0000   1.0000
     0.0000   0.0000   0.0000   0.0000

          k = 0.0000 0.5162 0.1721 (  4201 PWs)   bands (ev):

   -14.5766 -14.1007 -13.1556 -13.1193  -5.0104  -4.9109  -4.6753  -4.4760
    -3.7051  -3.5075  -3.2555  -3.1308   0.6817   0.8321   1.1898   1.2717
     9.5951   9.6972  10.3785  10.5296

     occupation numbers 
     1.0000   1.0000   1.0000   1.0000   1.0000   1.0000   1.0000   1.0000
     1.0000   1.0000   1.0000   1.0000   1.0000   1.0000   1.0000   1.0000
     0.0000   0.0000   0.0000   0.0000

          k = 0.0000 0.5162 0.3441 (  4192 PWs)   bands (ev):

   -14.3773 -13.9496 -13.3921 -13.2643  -5.0884  -5.0314  -4.7510  -4.5543
    -3.7382  -3.4197  -3.2294  -3.0323   0.6946   0.8663   1.2068   1.3161
    10.0888  10.1879  10.9402  11.1766

     occupation numbers 
     1.0000   1.0000   1.0000   1.0000   1.0000   1.0000   1.0000   1.0000
     1.0000   1.0000   1.0000   1.0000   1.0000   1.0000   1.0000   1.0000
     0.0000   0.0000   0.0000   0.0000

          k =-0.1721 0.5162 0.3441 (  4208 PWs)   bands (ev):

   -14.3205 -13.9126 -13.4072 -13.3133  -5.3176  -5.2396  -4.8925  -4.6103
    -3.6275  -3.4069  -2.9696  -2.8567   0.6973   0.9287   1.2992   1.3761
     9.9836  10.1715  10.9402  11.3995

     occupation numbers 
     1.0000   1.0000   1.0000   1.0000   1.0000   1.0000   1.0000   1.0000
     1.0000   1.0000   1.0000   1.0000   1.0000   1.0000   1.0000   1.0000
     0.0000   0.0000   0.0000   0.0000

     the Fermi energy is     5.9055 ev

!    total energy              =     -96.11560119 Ry
     estimated scf accuracy    <          2.2E-12 Ry
     smearing contrib. (-TS)   =      -0.00000000 Ry
     internal energy E=F+TS    =     -96.11560119 Ry

     The total energy is F=E-TS. E is the sum of the following terms:
     one-electron contribution =     -25.98284984 Ry
     hartree contribution      =      26.23930099 Ry
     xc contribution           =     -32.13575722 Ry
     ewald contribution        =     -64.23629513 Ry

     convergence has been achieved in  13 iterations

     Forces acting on atoms (cartesian axes, Ry/au):

     atom    1 type  2   force =    -0.00011609   -0.00011609   -0.00011609
     atom    2 type  2   force =     0.00011609    0.00011609   -0.00011609
     atom    3 type  2   force =     0.00011609   -0.00011609    0.00011609
     atom    4 type  2   force =    -0.00011609    0.00011609    0.00011609
     atom    5 type  1   force =     0.00015241    0.00004026   -0.00007437
     atom    6 type  1   force =    -0.00015241   -0.00004026   -0.00007437
     atom    7 type  1   force =    -0.00015241    0.00004026    0.00007437
     atom    8 type  1   force =     0.00015241   -0.00004026    0.00007437
     atom    9 type  1   force =    -0.00007437    0.00015241    0.00004026
     atom   10 type  1   force =    -0.00007437   -0.00015241   -0.00004026
     atom   11 type  1   force =     0.00007437   -0.00015241    0.00004026
     atom   12 type  1   force =     0.00007437    0.00015241   -0.00004026
     atom   13 type  1   force =     0.00004026   -0.00007437    0.00015241
     atom   14 type  1   force =    -0.00004026   -0.00007437   -0.00015241
     atom   15 type  1   force =     0.00004026    0.00007437   -0.00015241
     atom   16 type  1   force =    -0.00004026    0.00007437    0.00015241
     The non-local contrib.  to forces
     atom    1 type  2   force =     0.57409101    0.57409101    0.57409101
     atom    2 type  2   force =    -0.57409101   -0.57409101    0.57409101
     atom    3 type  2   force =    -0.57409101    0.57409101   -0.57409101
     atom    4 type  2   force =     0.57409101   -0.57409101   -0.57409101
     atom    5 type  1   force =    -0.08141435   -0.01339486    0.04614004
     atom    6 type  1   force =     0.08141435    0.01339486    0.04614004
     atom    7 type  1   force =     0.08141435   -0.01339486   -0.04614004
     atom    8 type  1   force =    -0.08141435    0.01339486   -0.04614004
     atom    9 type  1   force =     0.04614004   -0.08141435   -0.01339486
     atom   10 type  1   force =     0.04614004    0.08141435    0.01339486
     atom   11 type  1   force =    -0.04614004    0.08141435   -0.01339486
     atom   12 type  1   force =    -0.04614004   -0.08141435    0.01339486
     atom   13 type  1   force =    -0.01339486    0.04614004   -0.08141435
     atom   14 type  1   force =     0.01339486    0.04614004    0.08141435
     atom   15 type  1   force =    -0.01339486   -0.04614004    0.08141435
     atom   16 type  1   force =     0.01339486   -0.04614004   -0.08141435
     The ionic contribution  to forces
     atom    1 type  2   force =    -0.90843057   -0.90843057   -0.90843057
     atom    2 type  2   force =     0.90843057    0.90843057   -0.90843057
     atom    3 type  2   force =     0.90843057   -0.90843057    0.90843057
     atom    4 type  2   force =    -0.90843057    0.90843057    0.90843057
     atom    5 type  1   force =     1.87638214    0.31244966   -0.91093193
     atom    6 type  1   force =    -1.87638214   -0.31244966   -0.91093193
     atom    7 type  1   force =    -1.87638214    0.31244966    0.91093193
     atom    8 type  1   force =     1.87638214   -0.31244966    0.91093193
     atom    9 type  1   force =    -0.91093193    1.87638214    0.31244966
     atom   10 type  1   force =    -0.91093193   -1.87638214   -0.31244966
     atom   11 type  1   force =     0.91093193   -1.87638214    0.31244966
     atom   12 type  1   force =     0.91093193    1.87638214   -0.31244966
     atom   13 type  1   force =     0.31244966   -0.91093193    1.87638214
     atom   14 type  1   force =    -0.31244966   -0.91093193   -1.87638214
     atom   15 type  1   force =     0.31244966    0.91093193   -1.87638214
     atom   16 type  1   force =    -0.31244966    0.91093193    1.87638214
     The local contribution  to forces
     atom    1 type  2   force =     0.34214362    0.34214362    0.34214362
     atom    2 type  2   force =    -0.34214362   -0.34214362    0.34214362
     atom    3 type  2   force =    -0.34214362    0.34214362   -0.34214362
     atom    4 type  2   force =     0.34214362   -0.34214362   -0.34214362
     atom    5 type  1   force =    -1.79481524   -0.29901450    0.86471748
     atom    6 type  1   force =     1.79481524    0.29901450    0.86471748
     atom    7 type  1   force =     1.79481524   -0.29901450   -0.86471748
     atom    8 type  1   force =    -1.79481524    0.29901450   -0.86471748
     atom    9 type  1   force =     0.86471748   -1.79481524   -0.29901450
     atom   10 type  1   force =     0.86471748    1.79481524    0.29901450
     atom   11 type  1   force =    -0.86471748    1.79481524   -0.29901450
     atom   12 type  1   force =    -0.86471748   -1.79481524    0.29901450
     atom   13 type  1   force =    -0.29901450    0.86471748   -1.79481524
     atom   14 type  1   force =     0.29901450    0.86471748    1.79481524
     atom   15 type  1   force =    -0.29901450   -0.86471748    1.79481524
     atom   16 type  1   force =     0.29901450   -0.86471748   -1.79481524
     The core correction contribution to forces
     atom    1 type  2   force =    -0.00792000   -0.00792000   -0.00792000
     atom    2 type  2   force =     0.00792000    0.00792000   -0.00792000
     atom    3 type  2   force =     0.00792000   -0.00792000    0.00792000
     atom    4 type  2   force =    -0.00792000    0.00792000    0.00792000
     atom    5 type  1   force =     0.00000000    0.00000000    0.00000000
     atom    6 type  1   force =     0.00000000    0.00000000    0.00000000
     atom    7 type  1   force =     0.00000000    0.00000000    0.00000000
     atom    8 type  1   force =     0.00000000    0.00000000    0.00000000
     atom    9 type  1   force =     0.00000000    0.00000000    0.00000000
     atom   10 type  1   force =     0.00000000    0.00000000    0.00000000
     atom   11 type  1   force =     0.00000000    0.00000000    0.00000000
     atom   12 type  1   force =     0.00000000    0.00000000    0.00000000
     atom   13 type  1   force =     0.00000000    0.00000000    0.00000000
     atom   14 type  1   force =     0.00000000    0.00000000    0.00000000
     atom   15 type  1   force =     0.00000000    0.00000000    0.00000000
     atom   16 type  1   force =     0.00000000    0.00000000    0.00000000
     The Hubbard contrib.    to forces
     atom    1 type  2   force =     0.00000000    0.00000000    0.00000000
     atom    2 type  2   force =     0.00000000    0.00000000    0.00000000
     atom    3 type  2   force =     0.00000000    0.00000000    0.00000000
     atom    4 type  2   force =     0.00000000    0.00000000    0.00000000
     atom    5 type  1   force =     0.00000000    0.00000000    0.00000000
     atom    6 type  1   force =     0.00000000    0.00000000    0.00000000
     atom    7 type  1   force =     0.00000000    0.00000000    0.00000000
     atom    8 type  1   force =     0.00000000    0.00000000    0.00000000
     atom    9 type  1   force =     0.00000000    0.00000000    0.00000000
     atom   10 type  1   force =     0.00000000    0.00000000    0.00000000
     atom   11 type  1   force =     0.00000000    0.00000000    0.00000000
     atom   12 type  1   force =     0.00000000    0.00000000    0.00000000
     atom   13 type  1   force =     0.00000000    0.00000000    0.00000000
     atom   14 type  1   force =     0.00000000    0.00000000    0.00000000
     atom   15 type  1   force =     0.00000000    0.00000000    0.00000000
     atom   16 type  1   force =     0.00000000    0.00000000    0.00000000
     The SCF correction term to forces
     atom    1 type  2   force =    -0.00000014   -0.00000014   -0.00000014
     atom    2 type  2   force =     0.00000014    0.00000014   -0.00000014
     atom    3 type  2   force =     0.00000014   -0.00000014    0.00000014
     atom    4 type  2   force =    -0.00000014    0.00000014    0.00000014
     atom    5 type  1   force =    -0.00000013   -0.00000003    0.00000005
     atom    6 type  1   force =     0.00000013    0.00000003    0.00000005
     atom    7 type  1   force =     0.00000013   -0.00000003   -0.00000005
     atom    8 type  1   force =    -0.00000013    0.00000003   -0.00000005
     atom    9 type  1   force =     0.00000005   -0.00000013   -0.00000003
     atom   10 type  1   force =     0.00000005    0.00000013    0.00000003
     atom   11 type  1   force =    -0.00000005    0.00000013   -0.00000003
     atom   12 type  1   force =    -0.00000005   -0.00000013    0.00000003
     atom   13 type  1   force =    -0.00000003    0.00000005   -0.00000013
     atom   14 type  1   force =     0.00000003    0.00000005    0.00000013
     atom   15 type  1   force =    -0.00000003   -0.00000005    0.00000013
     atom   16 type  1   force =     0.00000003   -0.00000005   -0.00000013

     Total force =     0.000725     Total SCF correction =     0.000001


     Computing stress (Cartesian axis) and pressure

          total   stress  (Ry/bohr**3)                   (kbar)     P=      148.46
   0.00100919   0.00000000   0.00000000          148.46        0.00        0.00
   0.00000000   0.00100919   0.00000000            0.00      148.46        0.00
   0.00000000   0.00000000   0.00100919            0.00        0.00      148.46

     kinetic stress (kbar)  11382.98      0.00      0.00
                                0.00  11382.98      0.00
                                0.00      0.00  11382.98

     local   stress (kbar)  -4989.51     -0.00     -0.00
                               -0.00  -4989.51     -0.00
                               -0.00     -0.00  -4989.51

     nonloc. stress (kbar)    -69.67      0.00      0.00
                                0.00    -69.67      0.00
                                0.00      0.00    -69.67

     hartree stress (kbar)   2402.49      0.00     -0.00
                                0.00   2402.49      0.00
                               -0.00      0.00   2402.49

     exc-cor stress (kbar)  -1941.61     -0.00      0.00
                               -0.00  -1941.61      0.00
                                0.00      0.00  -1941.61

     corecor stress (kbar)   -754.71     -0.00     -0.00
                               -0.00   -754.71     -0.00
                               -0.00     -0.00   -754.71

     ewald   stress (kbar)  -5881.53      0.00      0.00
                                0.00  -5881.53     -0.00
                                0.00     -0.00  -5881.53

     hubbard stress (kbar)      0.00      0.00      0.00
                                0.00      0.00      0.00
                                0.00      0.00      0.00

     DFT-D   stress (kbar)      0.00      0.00      0.00
                                0.00      0.00      0.00
                                0.00      0.00      0.00

     XDM     stress (kbar)      0.00      0.00      0.00
                                0.00      0.00      0.00
                                0.00      0.00      0.00

     dft-nl  stress (kbar)      0.00      0.00      0.00
                                0.00      0.00      0.00
                                0.00      0.00      0.00

     TS-vdW  stress (kbar)      0.00      0.00      0.00
                                0.00      0.00      0.00
                                0.00      0.00      0.00

     MDB     stress (kbar)      0.00      0.00      0.00
                                0.00      0.00      0.00
                                0.00      0.00      0.00

     3D-RISM stress (kbar)      0.00      0.00      0.00
                                0.00      0.00      0.00
                                0.00      0.00      0.00


     Writing all to output data dir ./out/AC_Ph_1.save/

     init_run     :      6.80s CPU      6.88s WALL (       2 calls)
     electrons    :   1156.41s CPU   1174.96s WALL (      30 calls)
     update_pot   :     78.88s CPU     79.09s WALL (      28 calls)
     forces       :     63.22s CPU     63.65s WALL (      30 calls)
     stress       :    106.62s CPU    107.03s WALL (      30 calls)

     Called by init_run:
     wfcinit      :      2.14s CPU      2.17s WALL (       2 calls)
     wfcinit:atom :      0.02s CPU      0.02s WALL (      48 calls)
     wfcinit:wfcr :      2.04s CPU      2.07s WALL (      48 calls)
     potinit      :      1.82s CPU      1.83s WALL (       2 calls)
     hinit0       :      2.36s CPU      2.38s WALL (       2 calls)

     Called by electrons:
     c_bands      :    973.60s CPU    987.34s WALL (     353 calls)
     sum_band     :    144.85s CPU    147.79s WALL (     353 calls)
     v_of_rho     :     19.27s CPU     20.13s WALL (     382 calls)
     v_h          :      1.19s CPU      1.32s WALL (     382 calls)
     v_xc         :     20.90s CPU     21.78s WALL (     442 calls)
     newd         :     16.22s CPU     16.52s WALL (     382 calls)
     mix_rho      :      2.93s CPU      3.10s WALL (     353 calls)

     Called by c_bands:
     init_us_2    :      9.31s CPU      9.39s WALL (   18432 calls)
     init_us_2:cp :      9.21s CPU      9.33s WALL (   18432 calls)
     cegterg      :    956.26s CPU    969.66s WALL (    8472 calls)

     Called by sum_band:
     sum_band:wei :      0.05s CPU      0.05s WALL (     353 calls)
     sum_band:loo :    126.50s CPU    128.95s WALL (     353 calls)
     sum_band:buf :      1.04s CPU      1.05s WALL (    8472 calls)
     sum_band:ini :      4.17s CPU      4.20s WALL (    8472 calls)
     sum_band:cal :     40.90s CPU     41.79s WALL (    8472 calls)
     sum_band:bec :      0.31s CPU      0.31s WALL (    8472 calls)
     addusdens    :     14.79s CPU     14.93s WALL (     353 calls)
     addusd:skk   :      0.92s CPU      0.93s WALL (     706 calls)
     addusd:dgemm :      7.85s CPU      7.91s WALL (     706 calls)
     addusd:qvan2 :      4.31s CPU      4.33s WALL (     706 calls)

     Called by *egterg:
     cdiaghg      :     34.30s CPU     34.46s WALL (   28458 calls)
     cegterg:over :    106.63s CPU    107.96s WALL (   20682 calls)
     cegterg:upda :     28.84s CPU     28.96s WALL (   20682 calls)
     cegterg:last :     63.99s CPU     64.23s WALL (   17403 calls)
     h_psi        :    608.84s CPU    619.84s WALL (   29202 calls)
     s_psi        :     60.87s CPU     61.17s WALL (   29202 calls)
     g_psi        :      3.83s CPU      3.86s WALL (   20682 calls)

     Called by h_psi:
     h_psi:calbec :    114.85s CPU    117.38s WALL (   29202 calls)
     vloc_psi     :    430.34s CPU    438.51s WALL (   29202 calls)
     add_vuspsi   :     60.87s CPU     61.17s WALL (   29202 calls)

     General routines
     calbec       :    173.21s CPU    176.96s WALL (   41274 calls)
     fft          :     14.71s CPU     15.74s WALL (    5685 calls)
     ffts         :      0.81s CPU      0.83s WALL (     735 calls)
     fftw         :    461.45s CPU    469.64s WALL ( 1108396 calls)
     interpolate  :      1.53s CPU      1.61s WALL (     382 calls)

     Parallel routines

     PWSCF        :  23m35.56s CPU  23m55.53s WALL


   This run was terminated on:   9: 2:10  14Dec2022            

=------------------------------------------------------------------------------=
   JOB DONE.
=------------------------------------------------------------------------------=
