
     Program PWSCF v.7.1 starts on 14Dec2022 at  7:24:16 

     This program is part of the open-source Quantum ESPRESSO suite
     for quantum simulation of materials; please cite
         "P. Giannozzi et al., J. Phys.:Condens. Matter 21 395502 (2009);
         "P. Giannozzi et al., J. Phys.:Condens. Matter 29 465901 (2017);
         "P. Giannozzi et al., J. Chem. Phys. 152 154105 (2020);
          URL http://www.quantum-espresso.org", 
     in publications or presentations arising from this work. More details at
     http://www.quantum-espresso.org/quote

     Parallel version (MPI), running on    14 processors

     MPI processes distributed on     1 nodes
     23427 MiB available memory on the printing compute node when the environment starts

     Reading input from pwrelax.in

     Current dimensions of program PWSCF are:
     Max number of different atomic species (ntypx) = 10
     Max number of k-points (npk) =  40000
     Max angular momentum in pseudopotentials (lmaxx) =  4
     Message from routine setup:
     using ibrav=0 with symmetry is DISCOURAGED, use correct ibrav instead

     R & G space division:  proc/nbgrp/npool/nimage =      14
     Subspace diagonalization in iterative solution of the eigenvalue problem:
     a serial algorithm will be used


     Parallelization info
     --------------------
     sticks:   dense  smooth     PW     G-vecs:    dense   smooth      PW
     Min         261     130     36                11875     4192     622
     Max         262     131     37                11878     4195     625
     Sum        3657    1829    509               166269    58701    8733

     Using Slab Decomposition



     bravais-lattice index     =            0
     lattice parameter (alat)  =       9.7806  a.u.
     unit-cell volume          =     935.6060 (a.u.)^3
     number of atoms/cell      =           16
     number of atomic types    =            2
     number of electrons       =        32.00
     number of Kohn-Sham states=           20
     kinetic-energy cutoff     =      60.0000  Ry
     charge density cutoff     =     480.0000  Ry
     scf convergence threshold =      3.2E-09
     mixing beta               =       0.4000
     number of iterations used =            8  plain     mixing
     energy convergence thresh.=      1.6E-04
     force convergence thresh. =      1.0E-04
     press convergence thresh. =      5.0E-01
     Exchange-correlation= PBE
                           (   1   4   3   4   0   0   0)
     nstep                     =           50


     celldm(1)=   9.780574  celldm(2)=   0.000000  celldm(3)=   0.000000
     celldm(4)=   0.000000  celldm(5)=   0.000000  celldm(6)=   0.000000

     crystal axes: (cart. coord. in units of alat)
               a(1) = (   1.000000   0.000000   0.000000 )  
               a(2) = (   0.000000   1.000000   0.000000 )  
               a(3) = (   0.000000   0.000000   1.000000 )  

     reciprocal axes: (cart. coord. in units 2 pi/alat)
               b(1) = (  1.000000  0.000000  0.000000 )  
               b(2) = (  0.000000  1.000000  0.000000 )  
               b(3) = (  0.000000  0.000000  1.000000 )  


     PseudoPot. # 1 for H  read from file:
     ./pseudo/H.pbe-rrkjus_psl.1.0.0.UPF
     MD5 check sum: 3f4114867bd07edc7f1424d066fc1888
     Pseudo is Ultrasoft, Zval =  1.0
     Generated using &quot;atomic&quot; code by A. Dal Corso  v.6.3MaX
     Using radial grid of  929 points,  2 beta functions with: 
                l(1) =   0
                l(2) =   0
     Q(r) pseudized with 0 coefficients 


     PseudoPot. # 2 for N  read from file:
     ./pseudo/N.pbe-n-rrkjus_psl.1.0.0.UPF
     MD5 check sum: ada94e3ed05223de5319d0572dc76806
     Pseudo is Ultrasoft + core correction, Zval =  5.0
     Generated using &quot;atomic&quot; code by A. Dal Corso  v.6.3MaX
     Using radial grid of 1085 points,  4 beta functions with: 
                l(1) =   0
                l(2) =   0
                l(3) =   1
                l(4) =   1
     Q(r) pseudized with 0 coefficients 


     atomic species   valence    mass     pseudopotential
        H              1.00     1.00794     H ( 1.00)
        N              5.00    14.00670     N ( 1.00)

     12 Sym. Ops. (no inversion) found ( 9 have fractional translation)


                                    s                        frac. trans.

      isym =  1     identity                                     

 cryst.   s( 1) = (     1          0          0      )
                  (     0          1          0      )
                  (     0          0          1      )

 cart.    s( 1) = (  1.0000000  0.0000000  0.0000000 )
                  (  0.0000000  1.0000000  0.0000000 )
                  (  0.0000000  0.0000000  1.0000000 )


      isym =  2     180 deg rotation - cart. axis [0,0,1]        

 cryst.   s( 2) = (    -1          0          0      )    f =(  0.5000000 )
                  (     0         -1          0      )       (  0.0000000 )
                  (     0          0          1      )       ( -0.5000000 )

 cart.    s( 2) = ( -1.0000000  0.0000000  0.0000000 )    f =(  0.5000000 )
                  (  0.0000000 -1.0000000  0.0000000 )       (  0.0000000 )
                  (  0.0000000  0.0000000  1.0000000 )       ( -0.5000000 )


      isym =  3     180 deg rotation - cart. axis [0,1,0]        

 cryst.   s( 3) = (    -1          0          0      )    f =(  0.0000000 )
                  (     0          1          0      )       ( -0.5000000 )
                  (     0          0         -1      )       (  0.5000000 )

 cart.    s( 3) = ( -1.0000000  0.0000000  0.0000000 )    f =(  0.0000000 )
                  (  0.0000000  1.0000000  0.0000000 )       ( -0.5000000 )
                  (  0.0000000  0.0000000 -1.0000000 )       (  0.5000000 )


      isym =  4     180 deg rotation - cart. axis [1,0,0]        

 cryst.   s( 4) = (     1          0          0      )    f =( -0.5000000 )
                  (     0         -1          0      )       (  0.5000000 )
                  (     0          0         -1      )       (  0.0000000 )

 cart.    s( 4) = (  1.0000000  0.0000000  0.0000000 )    f =( -0.5000000 )
                  (  0.0000000 -1.0000000  0.0000000 )       (  0.5000000 )
                  (  0.0000000  0.0000000 -1.0000000 )       (  0.0000000 )


      isym =  5     120 deg rotation - cart. axis [-1,-1,-1]     

 cryst.   s( 5) = (     0          0          1      )
                  (     1          0          0      )
                  (     0          1          0      )

 cart.    s( 5) = (  0.0000000  1.0000000  0.0000000 )
                  (  0.0000000  0.0000000  1.0000000 )
                  (  1.0000000  0.0000000  0.0000000 )


      isym =  6     120 deg rotation - cart. axis [-1,1,1]       

 cryst.   s( 6) = (     0          0         -1      )    f =(  0.0000000 )
                  (    -1          0          0      )       ( -0.5000000 )
                  (     0          1          0      )       (  0.5000000 )

 cart.    s( 6) = (  0.0000000 -1.0000000  0.0000000 )    f =(  0.0000000 )
                  (  0.0000000  0.0000000  1.0000000 )       ( -0.5000000 )
                  ( -1.0000000  0.0000000  0.0000000 )       (  0.5000000 )


      isym =  7     120 deg rotation - cart. axis [1,1,-1]       

 cryst.   s( 7) = (     0          0         -1      )    f =( -0.5000000 )
                  (     1          0          0      )       (  0.5000000 )
                  (     0         -1          0      )       (  0.0000000 )

 cart.    s( 7) = (  0.0000000  1.0000000  0.0000000 )    f =( -0.5000000 )
                  (  0.0000000  0.0000000 -1.0000000 )       (  0.5000000 )
                  ( -1.0000000  0.0000000  0.0000000 )       (  0.0000000 )


      isym =  8     120 deg rotation - cart. axis [1,-1,1]       

 cryst.   s( 8) = (     0          0          1      )    f =(  0.5000000 )
                  (    -1          0          0      )       (  0.0000000 )
                  (     0         -1          0      )       ( -0.5000000 )

 cart.    s( 8) = (  0.0000000 -1.0000000  0.0000000 )    f =(  0.5000000 )
                  (  0.0000000  0.0000000 -1.0000000 )       (  0.0000000 )
                  (  1.0000000  0.0000000  0.0000000 )       ( -0.5000000 )


      isym =  9     120 deg rotation - cart. axis [1,1,1]        

 cryst.   s( 9) = (     0          1          0      )
                  (     0          0          1      )
                  (     1          0          0      )

 cart.    s( 9) = (  0.0000000  0.0000000  1.0000000 )
                  (  1.0000000  0.0000000  0.0000000 )
                  (  0.0000000  1.0000000  0.0000000 )


      isym = 10     120 deg rotation - cart. axis [-1,1,-1]      

 cryst.   s(10) = (     0         -1          0      )    f =( -0.5000000 )
                  (     0          0         -1      )       (  0.5000000 )
                  (     1          0          0      )       (  0.0000000 )

 cart.    s(10) = (  0.0000000  0.0000000  1.0000000 )    f =( -0.5000000 )
                  ( -1.0000000  0.0000000  0.0000000 )       (  0.5000000 )
                  (  0.0000000 -1.0000000  0.0000000 )       (  0.0000000 )


      isym = 11     120 deg rotation - cart. axis [1,-1,-1]      

 cryst.   s(11) = (     0         -1          0      )    f =(  0.5000000 )
                  (     0          0          1      )       (  0.0000000 )
                  (    -1          0          0      )       ( -0.5000000 )

 cart.    s(11) = (  0.0000000  0.0000000 -1.0000000 )    f =(  0.5000000 )
                  ( -1.0000000  0.0000000  0.0000000 )       (  0.0000000 )
                  (  0.0000000  1.0000000  0.0000000 )       ( -0.5000000 )


      isym = 12     120 deg rotation - cart. axis [-1,-1,1]      

 cryst.   s(12) = (     0          1          0      )    f =(  0.0000000 )
                  (     0          0         -1      )       ( -0.5000000 )
                  (    -1          0          0      )       (  0.5000000 )

 cart.    s(12) = (  0.0000000  0.0000000 -1.0000000 )    f =(  0.0000000 )
                  (  1.0000000  0.0000000  0.0000000 )       ( -0.5000000 )
                  (  0.0000000 -1.0000000  0.0000000 )       (  0.5000000 )


   Cartesian axes

     site n.     atom                  positions (alat units)
         1           N   tau(   1) = (   0.1965969   0.1965969   0.1965969  )
         2           N   tau(   2) = (   0.3034031   0.8034031   0.6965969  )
         3           N   tau(   3) = (   0.8034031   0.6965969   0.3034031  )
         4           N   tau(   4) = (   0.6965969   0.3034031   0.8034031  )
         5           H   tau(   5) = (   0.3510363   0.2703623   0.0960458  )
         6           H   tau(   6) = (   0.1489637   0.7296377   0.5960458  )
         7           H   tau(   7) = (   0.6489637   0.7703623   0.4039542  )
         8           H   tau(   8) = (   0.8510363   0.2296377   0.9039542  )
         9           H   tau(   9) = (   0.0960458   0.3510363   0.2703623  )
        10           H   tau(  10) = (   0.5960458   0.1489637   0.7296377  )
        11           H   tau(  11) = (   0.4039542   0.6489637   0.7703623  )
        12           H   tau(  12) = (   0.9039542   0.8510363   0.2296377  )
        13           H   tau(  13) = (   0.2703623   0.0960458   0.3510363  )
        14           H   tau(  14) = (   0.7296377   0.5960458   0.1489637  )
        15           H   tau(  15) = (   0.7703623   0.4039542   0.6489637  )
        16           H   tau(  16) = (   0.2296377   0.9039542   0.8510363  )

   Crystallographic axes

     site n.     atom                  positions (cryst. coord.)
         1           N   tau(   1) = (  0.1965969  0.1965969  0.1965969  )
         2           N   tau(   2) = (  0.3034031  0.8034031  0.6965969  )
         3           N   tau(   3) = (  0.8034031  0.6965969  0.3034031  )
         4           N   tau(   4) = (  0.6965969  0.3034031  0.8034031  )
         5           H   tau(   5) = (  0.3510363  0.2703623  0.0960458  )
         6           H   tau(   6) = (  0.1489637  0.7296377  0.5960458  )
         7           H   tau(   7) = (  0.6489637  0.7703623  0.4039542  )
         8           H   tau(   8) = (  0.8510363  0.2296377  0.9039542  )
         9           H   tau(   9) = (  0.0960458  0.3510363  0.2703623  )
        10           H   tau(  10) = (  0.5960458  0.1489637  0.7296377  )
        11           H   tau(  11) = (  0.4039542  0.6489637  0.7703623  )
        12           H   tau(  12) = (  0.9039542  0.8510363  0.2296377  )
        13           H   tau(  13) = (  0.2703623  0.0960458  0.3510363  )
        14           H   tau(  14) = (  0.7296377  0.5960458  0.1489637  )
        15           H   tau(  15) = (  0.7703623  0.4039542  0.6489637  )
        16           H   tau(  16) = (  0.2296377  0.9039542  0.8510363  )

     number of k points=    24  Marzari-Vanderbilt smearing, width (Ry)=  0.0147
                       cart. coord. in units 2pi/alat
        k(    1) = (   0.0000000   0.0000000   0.0000000), wk =   0.0058309
        k(    2) = (   0.0000000   0.0000000   0.1428571), wk =   0.0349854
        k(    3) = (   0.0000000   0.0000000   0.2857143), wk =   0.0349854
        k(    4) = (   0.0000000   0.0000000   0.4285714), wk =   0.0349854
        k(    5) = (   0.0000000   0.1428571   0.1428571), wk =   0.0699708
        k(    6) = (   0.0000000   0.1428571   0.2857143), wk =   0.0699708
        k(    7) = (   0.0000000   0.1428571   0.4285714), wk =   0.0699708
        k(    8) = (   0.0000000   0.2857143   0.2857143), wk =   0.0699708
        k(    9) = (   0.0000000   0.2857143   0.4285714), wk =   0.0699708
        k(   10) = (   0.0000000   0.4285714   0.4285714), wk =   0.0699708
        k(   11) = (   0.1428571   0.1428571   0.1428571), wk =   0.0466472
        k(   12) = (   0.1428571   0.1428571   0.2857143), wk =   0.1399417
        k(   13) = (   0.1428571   0.1428571   0.4285714), wk =   0.1399417
        k(   14) = (   0.1428571   0.2857143   0.2857143), wk =   0.1399417
        k(   15) = (   0.1428571   0.2857143   0.4285714), wk =   0.1399417
        k(   16) = (   0.1428571   0.4285714   0.4285714), wk =   0.1399417
        k(   17) = (   0.2857143   0.2857143   0.2857143), wk =   0.0466472
        k(   18) = (   0.2857143   0.2857143   0.4285714), wk =   0.1399417
        k(   19) = (   0.2857143   0.4285714   0.4285714), wk =   0.1399417
        k(   20) = (   0.4285714   0.4285714   0.4285714), wk =   0.0466472
        k(   21) = (   0.0000000   0.2857143   0.1428571), wk =   0.0699708
        k(   22) = (   0.0000000   0.4285714   0.1428571), wk =   0.0699708
        k(   23) = (   0.0000000   0.4285714   0.2857143), wk =   0.0699708
        k(   24) = (  -0.1428571   0.4285714   0.2857143), wk =   0.1399417

                       cryst. coord.
        k(    1) = (   0.0000000   0.0000000   0.0000000), wk =   0.0058309
        k(    2) = (   0.0000000   0.0000000   0.1428571), wk =   0.0349854
        k(    3) = (   0.0000000   0.0000000   0.2857143), wk =   0.0349854
        k(    4) = (   0.0000000   0.0000000   0.4285714), wk =   0.0349854
        k(    5) = (   0.0000000   0.1428571   0.1428571), wk =   0.0699708
        k(    6) = (   0.0000000   0.1428571   0.2857143), wk =   0.0699708
        k(    7) = (   0.0000000   0.1428571   0.4285714), wk =   0.0699708
        k(    8) = (   0.0000000   0.2857143   0.2857143), wk =   0.0699708
        k(    9) = (   0.0000000   0.2857143   0.4285714), wk =   0.0699708
        k(   10) = (   0.0000000   0.4285714   0.4285714), wk =   0.0699708
        k(   11) = (   0.1428571   0.1428571   0.1428571), wk =   0.0466472
        k(   12) = (   0.1428571   0.1428571   0.2857143), wk =   0.1399417
        k(   13) = (   0.1428571   0.1428571   0.4285714), wk =   0.1399417
        k(   14) = (   0.1428571   0.2857143   0.2857143), wk =   0.1399417
        k(   15) = (   0.1428571   0.2857143   0.4285714), wk =   0.1399417
        k(   16) = (   0.1428571   0.4285714   0.4285714), wk =   0.1399417
        k(   17) = (   0.2857143   0.2857143   0.2857143), wk =   0.0466472
        k(   18) = (   0.2857143   0.2857143   0.4285714), wk =   0.1399417
        k(   19) = (   0.2857143   0.4285714   0.4285714), wk =   0.1399417
        k(   20) = (   0.4285714   0.4285714   0.4285714), wk =   0.0466472
        k(   21) = (   0.0000000   0.2857143   0.1428571), wk =   0.0699708
        k(   22) = (   0.0000000   0.4285714   0.1428571), wk =   0.0699708
        k(   23) = (   0.0000000   0.4285714   0.2857143), wk =   0.0699708
        k(   24) = (  -0.1428571   0.4285714   0.2857143), wk =   0.1399417

     Dense  grid:   166269 G-vectors     FFT dimensions: (  72,  72,  72)

     Smooth grid:    58701 G-vectors     FFT dimensions: (  50,  50,  50)

     Dynamical RAM for                 wfc:       0.16 MB

     Dynamical RAM for     wfc (w. buffer):       4.00 MB

     Dynamical RAM for           str. fact:       0.36 MB

     Dynamical RAM for           local pot:       0.00 MB

     Dynamical RAM for          nlocal pot:       0.45 MB

     Dynamical RAM for                qrad:       2.01 MB

     Dynamical RAM for          rho,v,vnew:       1.26 MB

     Dynamical RAM for               rhoin:       0.42 MB

     Dynamical RAM for            rho*nmix:       2.90 MB

     Dynamical RAM for           G-vectors:       0.71 MB

     Dynamical RAM for          h,s,v(r/c):       0.07 MB

     Dynamical RAM for          <psi|beta>:       0.02 MB

     Dynamical RAM for                 psi:       0.32 MB

     Dynamical RAM for                hpsi:       0.32 MB

     Dynamical RAM for                spsi:       0.32 MB

     Dynamical RAM for      wfcinit/wfcrot:       0.47 MB

     Dynamical RAM for           addusdens:       9.97 MB

     Dynamical RAM for          addusforce:      14.06 MB

     Dynamical RAM for         addusstress:       9.06 MB

     Estimated static dynamical RAM per process >      10.93 MB

     Estimated max dynamical RAM per process >      27.89 MB

     Estimated total dynamical RAM >     390.43 MB

     Check: negative core charge=   -0.000001

     Initial potential from superposition of free atoms

     starting charge      31.9999, renormalised to      32.0000
     Starting wfcs are   28 randomized atomic wfcs

     total cpu time spent up to now is        4.4 secs

     Self-consistent Calculation

     iteration #  1     ecut=    60.00 Ry     beta= 0.40
     Davidson diagonalization with overlap

---- Real-time Memory Report at c_bands before calling an iterative solver
            49 MiB given to the printing process from OS
             0 MiB allocation reported by mallinfo(arena+hblkhd)
         23137 MiB available memory on the node where the printing process lives
------------------
     ethr =  1.00E-02,  avg # of iterations =  3.0

     total cpu time spent up to now is        8.3 secs

     total energy              =     -95.85301964 Ry
     estimated scf accuracy    <       2.21175880 Ry

     iteration #  2     ecut=    60.00 Ry     beta= 0.40
     Davidson diagonalization with overlap

---- Real-time Memory Report at c_bands before calling an iterative solver
            54 MiB given to the printing process from OS
             0 MiB allocation reported by mallinfo(arena+hblkhd)
         23095 MiB available memory on the node where the printing process lives
------------------
     ethr =  6.91E-03,  avg # of iterations =  2.0

     total cpu time spent up to now is       11.6 secs

     total energy              =     -96.24364761 Ry
     estimated scf accuracy    <       0.11880527 Ry

     iteration #  3     ecut=    60.00 Ry     beta= 0.40
     Davidson diagonalization with overlap

---- Real-time Memory Report at c_bands before calling an iterative solver
            55 MiB given to the printing process from OS
             0 MiB allocation reported by mallinfo(arena+hblkhd)
         23085 MiB available memory on the node where the printing process lives
------------------
     ethr =  3.71E-04,  avg # of iterations =  5.1

     total cpu time spent up to now is       14.7 secs

     total energy              =     -96.23292517 Ry
     estimated scf accuracy    <       0.04177135 Ry

     iteration #  4     ecut=    60.00 Ry     beta= 0.40
     Davidson diagonalization with overlap

---- Real-time Memory Report at c_bands before calling an iterative solver
            55 MiB given to the printing process from OS
             0 MiB allocation reported by mallinfo(arena+hblkhd)
         23082 MiB available memory on the node where the printing process lives
------------------
     ethr =  1.31E-04,  avg # of iterations =  3.3

     total cpu time spent up to now is       17.5 secs

     total energy              =     -96.23519118 Ry
     estimated scf accuracy    <       0.00176228 Ry

     iteration #  5     ecut=    60.00 Ry     beta= 0.40
     Davidson diagonalization with overlap

---- Real-time Memory Report at c_bands before calling an iterative solver
            55 MiB given to the printing process from OS
             0 MiB allocation reported by mallinfo(arena+hblkhd)
         23079 MiB available memory on the node where the printing process lives
------------------
     ethr =  5.51E-06,  avg # of iterations =  5.9

     total cpu time spent up to now is       21.2 secs

     total energy              =     -96.23500454 Ry
     estimated scf accuracy    <       0.00069287 Ry

     iteration #  6     ecut=    60.00 Ry     beta= 0.40
     Davidson diagonalization with overlap

---- Real-time Memory Report at c_bands before calling an iterative solver
            55 MiB given to the printing process from OS
             0 MiB allocation reported by mallinfo(arena+hblkhd)
         23077 MiB available memory on the node where the printing process lives
------------------
     ethr =  2.17E-06,  avg # of iterations =  2.4

     total cpu time spent up to now is       24.7 secs

     total energy              =     -96.23518339 Ry
     estimated scf accuracy    <       0.00011590 Ry

     iteration #  7     ecut=    60.00 Ry     beta= 0.40
     Davidson diagonalization with overlap

---- Real-time Memory Report at c_bands before calling an iterative solver
            55 MiB given to the printing process from OS
             0 MiB allocation reported by mallinfo(arena+hblkhd)
         23047 MiB available memory on the node where the printing process lives
------------------
     ethr =  3.62E-07,  avg # of iterations =  2.0

     total cpu time spent up to now is       28.0 secs

     total energy              =     -96.23521092 Ry
     estimated scf accuracy    <       0.00000996 Ry

     iteration #  8     ecut=    60.00 Ry     beta= 0.40
     Davidson diagonalization with overlap

---- Real-time Memory Report at c_bands before calling an iterative solver
            55 MiB given to the printing process from OS
             0 MiB allocation reported by mallinfo(arena+hblkhd)
         23051 MiB available memory on the node where the printing process lives
------------------
     ethr =  3.11E-08,  avg # of iterations =  2.0

     total cpu time spent up to now is       31.3 secs

     total energy              =     -96.23521390 Ry
     estimated scf accuracy    <       0.00000227 Ry

     iteration #  9     ecut=    60.00 Ry     beta= 0.40
     Davidson diagonalization with overlap

---- Real-time Memory Report at c_bands before calling an iterative solver
            55 MiB given to the printing process from OS
             0 MiB allocation reported by mallinfo(arena+hblkhd)
         23050 MiB available memory on the node where the printing process lives
------------------
     ethr =  7.08E-09,  avg # of iterations =  1.0

     total cpu time spent up to now is       33.7 secs

     total energy              =     -96.23521264 Ry
     estimated scf accuracy    <       0.00000221 Ry

     iteration # 10     ecut=    60.00 Ry     beta= 0.40
     Davidson diagonalization with overlap

---- Real-time Memory Report at c_bands before calling an iterative solver
            56 MiB given to the printing process from OS
             0 MiB allocation reported by mallinfo(arena+hblkhd)
         23047 MiB available memory on the node where the printing process lives
------------------
     ethr =  6.91E-09,  avg # of iterations =  2.0

     total cpu time spent up to now is       37.1 secs

     total energy              =     -96.23521327 Ry
     estimated scf accuracy    <       0.00000044 Ry

     iteration # 11     ecut=    60.00 Ry     beta= 0.40
     Davidson diagonalization with overlap

---- Real-time Memory Report at c_bands before calling an iterative solver
            56 MiB given to the printing process from OS
             0 MiB allocation reported by mallinfo(arena+hblkhd)
         23045 MiB available memory on the node where the printing process lives
------------------
     ethr =  1.36E-09,  avg # of iterations =  2.0

     total cpu time spent up to now is       40.2 secs

     End of self-consistent calculation

          k = 0.0000 0.0000 0.0000 (  7249 PWs)   bands (ev):

   -17.3368 -16.7060 -16.7060 -16.7060  -7.6047  -7.6047  -7.6047  -6.8009
    -6.8009  -6.5745  -6.5745  -6.5745  -2.3527  -2.3527  -2.3527  -1.7978
     2.4668   5.8058   5.8058   5.8058

     occupation numbers 
     1.0000   1.0000   1.0000   1.0000   1.0000   1.0000   1.0000   1.0000
     1.0000   1.0000   1.0000   1.0000   1.0000   1.0000   1.0000   1.0000
     0.0000   0.0000   0.0000   0.0000

          k = 0.0000 0.0000 0.1429 (  7296 PWs)   bands (ev):

   -17.3105 -16.7708 -16.7022 -16.6738  -7.6215  -7.5995  -7.5288  -6.8373
    -6.7789  -6.6856  -6.5985  -6.5016  -2.4563  -2.4062  -2.2495  -1.8219
     2.6710   5.6314   5.9702   6.0262

     occupation numbers 
     1.0000   1.0000   1.0000   1.0000   1.0000   1.0000   1.0000   1.0000
     1.0000   1.0000   1.0000   1.0000   1.0000   1.0000   1.0000   1.0000
     0.0000   0.0000   0.0000   0.0000

          k = 0.0000 0.0000 0.2857 (  7328 PWs)   bands (ev):

   -17.2358 -16.8708 -16.6920 -16.6641  -7.5997  -7.5854  -7.3947  -6.9330
    -6.7893  -6.7322  -6.6561  -6.4898  -2.5455  -2.5134  -2.1537  -1.8878
     3.2186   5.3329   6.3013   6.3987

     occupation numbers 
     1.0000   1.0000   1.0000   1.0000   1.0000   1.0000   1.0000   1.0000
     1.0000   1.0000   1.0000   1.0000   1.0000   1.0000   1.0000   1.0000
     0.0000   0.0000   0.0000   0.0000

          k = 0.0000 0.0000 0.4286 (  7344 PWs)   bands (ev):

   -17.1246 -16.9955 -16.6791 -16.6680  -7.5739  -7.5709  -7.2276  -7.0664
    -6.8312  -6.7853  -6.6131  -6.5353  -2.5981  -2.5898  -2.0640  -1.9746
     3.9643   4.7356   6.6460   6.8030

     occupation numbers 
     1.0000   1.0000   1.0000   1.0000   1.0000   1.0000   1.0000   1.0000
     1.0000   1.0000   1.0000   1.0000   1.0000   1.0000   1.0000   1.0000
     0.0000   0.0000   0.0000   0.0000

          k = 0.0000 0.1429 0.1429 (  7331 PWs)   bands (ev):

   -17.2853 -16.7924 -16.7158 -16.6658  -7.6090  -7.6013  -7.4898  -6.8521
    -6.7959  -6.6866  -6.6638  -6.4666  -2.4863  -2.4581  -2.2060  -1.8440
     2.8592   5.6460   5.9725   6.2031

     occupation numbers 
     1.0000   1.0000   1.0000   1.0000   1.0000   1.0000   1.0000   1.0000
     1.0000   1.0000   1.0000   1.0000   1.0000   1.0000   1.0000   1.0000
     0.0000   0.0000   0.0000   0.0000

          k = 0.0000 0.1429 0.2857 (  7325 PWs)   bands (ev):

   -17.2136 -16.8712 -16.7125 -16.6665  -7.5976  -7.5852  -7.3839  -6.9170
    -6.8570  -6.7410  -6.6561  -6.4573  -2.5479  -2.5420  -2.1323  -1.9027
     3.3719   5.4526   6.1126   6.6036

     occupation numbers 
     1.0000   1.0000   1.0000   1.0000   1.0000   1.0000   1.0000   1.0000
     1.0000   1.0000   1.0000   1.0000   1.0000   1.0000   1.0000   1.0000
     0.0000   0.0000   0.0000   0.0000

          k = 0.0000 0.1429 0.4286 (  7354 PWs)   bands (ev):

   -17.1074 -16.9854 -16.6962 -16.6785  -7.5854  -7.5757  -7.2314  -7.0612
    -6.8712  -6.8159  -6.5784  -6.5007  -2.5964  -2.5930  -2.0567  -1.9790
     4.0873   4.8511   6.4701   6.8137

     occupation numbers 
     1.0000   1.0000   1.0000   1.0000   1.0000   1.0000   1.0000   1.0000
     1.0000   1.0000   1.0000   1.0000   1.0000   1.0000   1.0000   1.0000
     0.0000   0.0000   0.0000   0.0000

          k = 0.0000 0.2857 0.2857 (  7349 PWs)   bands (ev):

   -17.1509 -16.8916 -16.7414 -16.6822  -7.6019  -7.5688  -7.3610  -6.9928
    -6.8889  -6.7468  -6.6232  -6.4462  -2.5865  -2.5596  -2.0908  -1.9413
     3.7997   5.5959   5.9671   6.8385

     occupation numbers 
     1.0000   1.0000   1.0000   1.0000   1.0000   1.0000   1.0000   1.0000
     1.0000   1.0000   1.0000   1.0000   1.0000   1.0000   1.0000   1.0000
     0.0000   0.0000   0.0000   0.0000

          k = 0.0000 0.2857 0.4286 (  7340 PWs)   bands (ev):

   -17.0603 -16.9627 -16.7359 -16.7091  -7.5953  -7.5809  -7.2726  -7.1367
    -6.8565  -6.7944  -6.5449  -6.4763  -2.6000  -2.5873  -2.0416  -1.9908
     4.4338   5.1681   6.0764   6.5523

     occupation numbers 
     1.0000   1.0000   1.0000   1.0000   1.0000   1.0000   1.0000   1.0000
     1.0000   1.0000   1.0000   1.0000   1.0000   1.0000   1.0000   1.0000
     0.0000   0.0000   0.0000   0.0000

          k = 0.0000 0.4286 0.4286 (  7349 PWs)   bands (ev):

   -16.9991 -16.9570 -16.7647 -16.7477  -7.5882  -7.5768  -7.3094  -7.2556
    -6.7765  -6.7422  -6.5377  -6.5029  -2.5943  -2.5865  -2.0253  -2.0074
     4.9436   5.5217   5.6212   6.0977

     occupation numbers 
     1.0000   1.0000   1.0000   1.0000   1.0000   1.0000   1.0000   1.0000
     1.0000   1.0000   1.0000   1.0000   1.0000   1.0000   1.0000   1.0000
     0.0000   0.0000   0.0000   0.0000

          k = 0.1429 0.1429 0.1429 (  7349 PWs)   bands (ev):

   -17.2610 -16.8061 -16.7281 -16.6656  -7.6076  -7.5945  -7.4658  -6.8663
    -6.7887  -6.7561  -6.6573  -6.4423  -2.5010  -2.4992  -2.1752  -1.8643
     3.0321   5.6677   6.0295   6.2991

     occupation numbers 
     1.0000   1.0000   1.0000   1.0000   1.0000   1.0000   1.0000   1.0000
     1.0000   1.0000   1.0000   1.0000   1.0000   1.0000   1.0000   1.0000
     0.0000   0.0000   0.0000   0.0000

          k = 0.1429 0.1429 0.2857 (  7322 PWs)   bands (ev):

   -17.1922 -16.8707 -16.7283 -16.6731  -7.6102  -7.5762  -7.3938  -6.9328
    -6.8732  -6.7528  -6.6348  -6.4357  -2.5652  -2.5383  -2.1171  -1.9174
     3.5092   5.5021   6.1836   6.6098

     occupation numbers 
     1.0000   1.0000   1.0000   1.0000   1.0000   1.0000   1.0000   1.0000
     1.0000   1.0000   1.0000   1.0000   1.0000   1.0000   1.0000   1.0000
     0.0000   0.0000   0.0000   0.0000

          k = 0.1429 0.1429 0.4286 (  7345 PWs)   bands (ev):

   -17.0909 -16.9756 -16.7108 -16.6898  -7.6003  -7.5810  -7.2700  -7.1055
    -6.8495  -6.7857  -6.5623  -6.4808  -2.5955  -2.5795  -2.0536  -1.9854
     4.1869   4.9235   6.4990   6.8468

     occupation numbers 
     1.0000   1.0000   1.0000   1.0000   1.0000   1.0000   1.0000   1.0000
     1.0000   1.0000   1.0000   1.0000   1.0000   1.0000   1.0000   1.0000
     0.0000   0.0000   0.0000   0.0000

          k = 0.1429 0.2857 0.2857 (  7354 PWs)   bands (ev):

   -17.1323 -16.8874 -16.7535 -16.6922  -7.6194  -7.5809  -7.3937  -7.0536
    -6.8601  -6.7172  -6.5985  -6.4193  -2.5835  -2.5446  -2.0838  -1.9549
     3.9008   5.6213   5.9960   6.7213

     occupation numbers 
     1.0000   1.0000   1.0000   1.0000   1.0000   1.0000   1.0000   1.0000
     1.0000   1.0000   1.0000   1.0000   1.0000   1.0000   1.0000   1.0000
     0.0000   0.0000   0.0000   0.0000

          k = 0.1429 0.2857 0.4286 (  7349 PWs)   bands (ev):

   -17.0459 -16.9534 -16.7470 -16.7199  -7.6186  -7.6016  -7.3338  -7.2093
    -6.7993  -6.7351  -6.5223  -6.4495  -2.5811  -2.5622  -2.0449  -2.0011
     4.4910   5.1877   6.0597   6.4483

     occupation numbers 
     1.0000   1.0000   1.0000   1.0000   1.0000   1.0000   1.0000   1.0000
     1.0000   1.0000   1.0000   1.0000   1.0000   1.0000   1.0000   1.0000
     0.0000   0.0000   0.0000   0.0000

          k = 0.1429 0.4286 0.4286 (  7329 PWs)   bands (ev):

   -16.9873 -16.9471 -16.7740 -16.7572  -7.6180  -7.6065  -7.3809  -7.3305
    -6.7115  -6.6748  -6.5071  -6.4688  -2.5608  -2.5512  -2.0358  -2.0207
     4.9511   5.4946   5.5722   5.9876

     occupation numbers 
     1.0000   1.0000   1.0000   1.0000   1.0000   1.0000   1.0000   1.0000
     1.0000   1.0000   1.0000   1.0000   1.0000   1.0000   1.0000   1.0000
     0.0000   0.0000   0.0000   0.0000

          k = 0.2857 0.2857 0.2857 (  7331 PWs)   bands (ev):

   -17.0804 -16.8880 -16.7784 -16.7169  -7.6414  -7.6154  -7.4482  -7.2006
    -6.7836  -6.6282  -6.5655  -6.3895  -2.5632  -2.5165  -2.0712  -1.9904
     4.1987   5.6504   5.9769   6.2230

     occupation numbers 
     1.0000   1.0000   1.0000   1.0000   1.0000   1.0000   1.0000   1.0000
     1.0000   1.0000   1.0000   1.0000   1.0000   1.0000   1.0000   1.0000
     0.0000   0.0000   0.0000   0.0000

          k = 0.2857 0.2857 0.4286 (  7361 PWs)   bands (ev):

   -17.0066 -16.9311 -16.7763 -16.7484  -7.6533  -7.6426  -7.4453  -7.3506
    -6.6900  -6.6192  -6.4858  -6.4100  -2.5278  -2.5054  -2.0574  -2.0307
     4.6724   5.2641   5.9106   6.0484

     occupation numbers 
     1.0000   1.0000   1.0000   1.0000   1.0000   1.0000   1.0000   1.0000
     1.0000   1.0000   1.0000   1.0000   1.0000   1.0000   1.0000   1.0000
     0.0000   0.0000   0.0000   0.0000

          k = 0.2857 0.4286 0.4286 (  7346 PWs)   bands (ev):

   -16.9550 -16.9206 -16.8003 -16.7833  -7.6684  -7.6619  -7.5132  -7.4731
    -6.5904  -6.5481  -6.4538  -6.4104  -2.4698  -2.4590  -2.0730  -2.0649
     4.9951   5.4242   5.4619   5.6971

     occupation numbers 
     1.0000   1.0000   1.0000   1.0000   1.0000   1.0000   1.0000   1.0000
     1.0000   1.0000   1.0000   1.0000   1.0000   1.0000   1.0000   1.0000
     0.0000   0.0000   0.0000   0.0000

          k = 0.4286 0.4286 0.4286 (  7355 PWs)   bands (ev):

   -16.9124 -16.8926 -16.8311 -16.8179  -7.6903  -7.6856  -7.6095  -7.5896
    -6.4901  -6.4558  -6.4252  -6.3907  -2.3618  -2.3555  -2.1339  -2.1330
     5.1243   5.3588   5.3713   5.3744

     occupation numbers 
     1.0000   1.0000   1.0000   1.0000   1.0000   1.0000   1.0000   1.0000
     1.0000   1.0000   1.0000   1.0000   1.0000   1.0000   1.0000   1.0000
     0.0000   0.0000   0.0000   0.0000

          k = 0.0000 0.2857 0.1429 (  7325 PWs)   bands (ev):

   -17.2136 -16.8712 -16.7125 -16.6665  -7.6032  -7.5743  -7.3921  -6.9383
    -6.8249  -6.7353  -6.6639  -6.4631  -2.5582  -2.5300  -2.1339  -1.9027
     3.3709   5.4063   6.3290   6.4524

     occupation numbers 
     1.0000   1.0000   1.0000   1.0000   1.0000   1.0000   1.0000   1.0000
     1.0000   1.0000   1.0000   1.0000   1.0000   1.0000   1.0000   1.0000
     0.0000   0.0000   0.0000   0.0000

          k = 0.0000 0.4286 0.1429 (  7354 PWs)   bands (ev):

   -17.1074 -16.9854 -16.6962 -16.6785  -7.5855  -7.5671  -7.2510  -7.0850
    -6.8397  -6.7792  -6.5985  -6.5144  -2.6007  -2.5858  -2.0584  -1.9796
     4.0805   4.8272   6.7590   6.7940

     occupation numbers 
     1.0000   1.0000   1.0000   1.0000   1.0000   1.0000   1.0000   1.0000
     1.0000   1.0000   1.0000   1.0000   1.0000   1.0000   1.0000   1.0000
     0.0000   0.0000   0.0000   0.0000

          k = 0.0000 0.4286 0.2857 (  7340 PWs)   bands (ev):

   -17.0603 -16.9627 -16.7359 -16.7091  -7.5930  -7.5704  -7.2959  -7.1603
    -6.8237  -6.7520  -6.5709  -6.4922  -2.6003  -2.5829  -2.0438  -1.9918
     4.4170   5.0950   6.3465   6.7436

     occupation numbers 
     1.0000   1.0000   1.0000   1.0000   1.0000   1.0000   1.0000   1.0000
     1.0000   1.0000   1.0000   1.0000   1.0000   1.0000   1.0000   1.0000
     0.0000   0.0000   0.0000   0.0000

          k =-0.1429 0.4286 0.2857 (  7349 PWs)   bands (ev):

   -17.0459 -16.9534 -16.7470 -16.7199  -7.6174  -7.5961  -7.3440  -7.2182
    -6.7856  -6.7151  -6.5362  -6.4574  -2.5808  -2.5602  -2.0462  -2.0018
     4.4804   5.1402   6.2237   6.5254

     occupation numbers 
     1.0000   1.0000   1.0000   1.0000   1.0000   1.0000   1.0000   1.0000
     1.0000   1.0000   1.0000   1.0000   1.0000   1.0000   1.0000   1.0000
     0.0000   0.0000   0.0000   0.0000

     the Fermi energy is     0.0394 ev

!    total energy              =     -96.23521335 Ry
     estimated scf accuracy    <          1.1E-09 Ry
     smearing contrib. (-TS)   =       0.00000000 Ry
     internal energy E=F+TS    =     -96.23521335 Ry

     The total energy is F=E-TS. E is the sum of the following terms:
     one-electron contribution =     -62.11192408 Ry
     hartree contribution      =      40.33239298 Ry
     xc contribution           =     -31.66721504 Ry
     ewald contribution        =     -42.78846721 Ry

     convergence has been achieved in  11 iterations

     Forces acting on atoms (cartesian axes, Ry/au):

     atom    1 type  2   force =    -0.00000310   -0.00000310   -0.00000310
     atom    2 type  2   force =     0.00000310    0.00000310   -0.00000310
     atom    3 type  2   force =     0.00000310   -0.00000310    0.00000310
     atom    4 type  2   force =    -0.00000310    0.00000310    0.00000310
     atom    5 type  1   force =    -0.00000212    0.00000894    0.00000289
     atom    6 type  1   force =     0.00000212   -0.00000894    0.00000289
     atom    7 type  1   force =     0.00000212    0.00000894   -0.00000289
     atom    8 type  1   force =    -0.00000212   -0.00000894   -0.00000289
     atom    9 type  1   force =     0.00000289   -0.00000212    0.00000894
     atom   10 type  1   force =     0.00000289    0.00000212   -0.00000894
     atom   11 type  1   force =    -0.00000289    0.00000212    0.00000894
     atom   12 type  1   force =    -0.00000289   -0.00000212   -0.00000894
     atom   13 type  1   force =     0.00000894    0.00000289   -0.00000212
     atom   14 type  1   force =    -0.00000894    0.00000289    0.00000212
     atom   15 type  1   force =     0.00000894   -0.00000289    0.00000212
     atom   16 type  1   force =    -0.00000894   -0.00000289   -0.00000212
     The non-local contrib.  to forces
     atom    1 type  2   force =     0.70035835    0.70035835    0.70035835
     atom    2 type  2   force =    -0.70035835   -0.70035835    0.70035835
     atom    3 type  2   force =    -0.70035835    0.70035835   -0.70035835
     atom    4 type  2   force =     0.70035835   -0.70035835   -0.70035835
     atom    5 type  1   force =    -0.07207650   -0.03359999    0.04922721
     atom    6 type  1   force =     0.07207650    0.03359999    0.04922721
     atom    7 type  1   force =     0.07207650   -0.03359999   -0.04922721
     atom    8 type  1   force =    -0.07207650    0.03359999   -0.04922721
     atom    9 type  1   force =     0.04922721   -0.07207650   -0.03359999
     atom   10 type  1   force =     0.04922721    0.07207650    0.03359999
     atom   11 type  1   force =    -0.04922721    0.07207650   -0.03359999
     atom   12 type  1   force =    -0.04922721   -0.07207650    0.03359999
     atom   13 type  1   force =    -0.03359999    0.04922721   -0.07207650
     atom   14 type  1   force =     0.03359999    0.04922721    0.07207650
     atom   15 type  1   force =    -0.03359999   -0.04922721    0.07207650
     atom   16 type  1   force =     0.03359999   -0.04922721   -0.07207650
     The ionic contribution  to forces
     atom    1 type  2   force =    -1.12218573   -1.12218573   -1.12218573
     atom    2 type  2   force =     1.12218573    1.12218573   -1.12218573
     atom    3 type  2   force =     1.12218573   -1.12218573    1.12218573
     atom    4 type  2   force =    -1.12218573    1.12218573    1.12218573
     atom    5 type  1   force =     1.86115973    0.96404061   -1.17107556
     atom    6 type  1   force =    -1.86115973   -0.96404061   -1.17107556
     atom    7 type  1   force =    -1.86115973    0.96404061    1.17107556
     atom    8 type  1   force =     1.86115973   -0.96404061    1.17107556
     atom    9 type  1   force =    -1.17107556    1.86115973    0.96404061
     atom   10 type  1   force =    -1.17107556   -1.86115973   -0.96404061
     atom   11 type  1   force =     1.17107556   -1.86115973    0.96404061
     atom   12 type  1   force =     1.17107556    1.86115973   -0.96404061
     atom   13 type  1   force =     0.96404061   -1.17107556    1.86115973
     atom   14 type  1   force =    -0.96404061   -1.17107556   -1.86115973
     atom   15 type  1   force =     0.96404061    1.17107556   -1.86115973
     atom   16 type  1   force =    -0.96404061    1.17107556    1.86115973
     The local contribution  to forces
     atom    1 type  2   force =     0.43157380    0.43157380    0.43157380
     atom    2 type  2   force =    -0.43157380   -0.43157380    0.43157380
     atom    3 type  2   force =    -0.43157380    0.43157380   -0.43157380
     atom    4 type  2   force =     0.43157380   -0.43157380   -0.43157380
     atom    5 type  1   force =    -1.78908370   -0.93043106    1.12184946
     atom    6 type  1   force =     1.78908370    0.93043106    1.12184946
     atom    7 type  1   force =     1.78908370   -0.93043106   -1.12184946
     atom    8 type  1   force =    -1.78908370    0.93043106   -1.12184946
     atom    9 type  1   force =     1.12184946   -1.78908370   -0.93043106
     atom   10 type  1   force =     1.12184946    1.78908370    0.93043106
     atom   11 type  1   force =    -1.12184946    1.78908370   -0.93043106
     atom   12 type  1   force =    -1.12184946   -1.78908370    0.93043106
     atom   13 type  1   force =    -0.93043106    1.12184946   -1.78908370
     atom   14 type  1   force =     0.93043106    1.12184946    1.78908370
     atom   15 type  1   force =    -0.93043106   -1.12184946    1.78908370
     atom   16 type  1   force =     0.93043106   -1.12184946   -1.78908370
     The core correction contribution to forces
     atom    1 type  2   force =    -0.00975701   -0.00975701   -0.00975701
     atom    2 type  2   force =     0.00975701    0.00975701   -0.00975701
     atom    3 type  2   force =     0.00975701   -0.00975701    0.00975701
     atom    4 type  2   force =    -0.00975701    0.00975701    0.00975701
     atom    5 type  1   force =     0.00000000    0.00000000    0.00000000
     atom    6 type  1   force =     0.00000000    0.00000000    0.00000000
     atom    7 type  1   force =     0.00000000    0.00000000    0.00000000
     atom    8 type  1   force =     0.00000000    0.00000000    0.00000000
     atom    9 type  1   force =     0.00000000    0.00000000    0.00000000
     atom   10 type  1   force =     0.00000000    0.00000000    0.00000000
     atom   11 type  1   force =     0.00000000    0.00000000    0.00000000
     atom   12 type  1   force =     0.00000000    0.00000000    0.00000000
     atom   13 type  1   force =     0.00000000    0.00000000    0.00000000
     atom   14 type  1   force =     0.00000000    0.00000000    0.00000000
     atom   15 type  1   force =     0.00000000    0.00000000    0.00000000
     atom   16 type  1   force =     0.00000000    0.00000000    0.00000000
     The Hubbard contrib.    to forces
     atom    1 type  2   force =     0.00000000    0.00000000    0.00000000
     atom    2 type  2   force =     0.00000000    0.00000000    0.00000000
     atom    3 type  2   force =     0.00000000    0.00000000    0.00000000
     atom    4 type  2   force =     0.00000000    0.00000000    0.00000000
     atom    5 type  1   force =     0.00000000    0.00000000    0.00000000
     atom    6 type  1   force =     0.00000000    0.00000000    0.00000000
     atom    7 type  1   force =     0.00000000    0.00000000    0.00000000
     atom    8 type  1   force =     0.00000000    0.00000000    0.00000000
     atom    9 type  1   force =     0.00000000    0.00000000    0.00000000
     atom   10 type  1   force =     0.00000000    0.00000000    0.00000000
     atom   11 type  1   force =     0.00000000    0.00000000    0.00000000
     atom   12 type  1   force =     0.00000000    0.00000000    0.00000000
     atom   13 type  1   force =     0.00000000    0.00000000    0.00000000
     atom   14 type  1   force =     0.00000000    0.00000000    0.00000000
     atom   15 type  1   force =     0.00000000    0.00000000    0.00000000
     atom   16 type  1   force =     0.00000000    0.00000000    0.00000000
     The SCF correction term to forces
     atom    1 type  2   force =     0.00000749    0.00000749    0.00000749
     atom    2 type  2   force =    -0.00000749   -0.00000749    0.00000749
     atom    3 type  2   force =    -0.00000749    0.00000749   -0.00000749
     atom    4 type  2   force =     0.00000749   -0.00000749   -0.00000749
     atom    5 type  1   force =    -0.00000165   -0.00000062    0.00000177
     atom    6 type  1   force =     0.00000165    0.00000062    0.00000177
     atom    7 type  1   force =     0.00000165   -0.00000062   -0.00000177
     atom    8 type  1   force =    -0.00000165    0.00000062   -0.00000177
     atom    9 type  1   force =     0.00000177   -0.00000165   -0.00000062
     atom   10 type  1   force =     0.00000177    0.00000165    0.00000062
     atom   11 type  1   force =    -0.00000177    0.00000165   -0.00000062
     atom   12 type  1   force =    -0.00000177   -0.00000165    0.00000062
     atom   13 type  1   force =    -0.00000062    0.00000177   -0.00000165
     atom   14 type  1   force =     0.00000062    0.00000177    0.00000165
     atom   15 type  1   force =    -0.00000062   -0.00000177    0.00000165
     atom   16 type  1   force =     0.00000062   -0.00000177   -0.00000165

     Total force =     0.000035     Total SCF correction =     0.000027
     SCF correction compared to forces is large: reduce conv_thr to get better values


     Computing stress (Cartesian axis) and pressure

          total   stress  (Ry/bohr**3)                   (kbar)     P=        0.02
   0.00000012   0.00000000   0.00000000            0.02        0.00        0.00
   0.00000000   0.00000012   0.00000000            0.00        0.02        0.00
   0.00000000   0.00000000   0.00000012            0.00        0.00        0.02

     kinetic stress (kbar)   6385.75      0.00      0.00
                                0.00   6385.75      0.00
                                0.00      0.00   6385.75

     local   stress (kbar)  -4707.21     -0.00      0.00
                               -0.00  -4707.21      0.00
                                0.00      0.00  -4707.21

     nonloc. stress (kbar)    -26.75      0.00      0.00
                                0.00    -26.75      0.00
                                0.00      0.00    -26.75

     hartree stress (kbar)   2113.82      0.00      0.00
                                0.00   2113.82      0.00
                                0.00      0.00   2113.82

     exc-cor stress (kbar)  -1092.20     -0.00     -0.00
                               -0.00  -1092.20     -0.00
                               -0.00     -0.00  -1092.20

     corecor stress (kbar)   -430.85     -0.00      0.00
                               -0.00   -430.85      0.00
                                0.00      0.00   -430.85

     ewald   stress (kbar)  -2242.54     -0.00     -0.00
                               -0.00  -2242.54     -0.00
                               -0.00     -0.00  -2242.54

     hubbard stress (kbar)      0.00      0.00      0.00
                                0.00      0.00      0.00
                                0.00      0.00      0.00

     DFT-D   stress (kbar)      0.00      0.00      0.00
                                0.00      0.00      0.00
                                0.00      0.00      0.00

     XDM     stress (kbar)      0.00      0.00      0.00
                                0.00      0.00      0.00
                                0.00      0.00      0.00

     dft-nl  stress (kbar)      0.00      0.00      0.00
                                0.00      0.00      0.00
                                0.00      0.00      0.00

     TS-vdW  stress (kbar)      0.00      0.00      0.00
                                0.00      0.00      0.00
                                0.00      0.00      0.00

     MDB     stress (kbar)      0.00      0.00      0.00
                                0.00      0.00      0.00
                                0.00      0.00      0.00

     3D-RISM stress (kbar)      0.00      0.00      0.00
                                0.00      0.00      0.00
                                0.00      0.00      0.00


     BFGS Geometry Optimization
     Energy error            =      0.0E+00 Ry
     Gradient error          =      8.9E-06 Ry/Bohr
     Cell gradient error     =      5.0E+01 kbar

     number of scf cycles    =   1
     number of bfgs steps    =   0

     enthalpy           new  =     -95.9172073285 Ry

     new trust radius        =       0.0519645175 bohr
     new conv_thr            =       0.0000000032 Ry

     new unit-cell volume =    911.96585 a.u.^3 (   135.13940 Ang^3 )
     density =      0.83706 g/cm^3

CELL_PARAMETERS (angstrom)
   5.131692900   0.000000000   0.000000000
   0.000000000   5.131692900   0.000000000
   0.000000000   0.000000000   5.131692900

ATOMIC_POSITIONS (crystal)
N             0.1965965626        0.1965965626        0.1965965626
N             0.3034034374        0.8034034374        0.6965965626
N             0.8034034374        0.6965965626        0.3034034374
N             0.6965965626        0.3034034374        0.8034034374
H             0.3510361211        0.2703632422        0.0960460663
H             0.1489638789        0.7296367578        0.5960460663
H             0.6489638789        0.7703632422        0.4039539337
H             0.8510361211        0.2296367578        0.9039539337
H             0.0960460663        0.3510361211        0.2703632422
H             0.5960460663        0.1489638789        0.7296367578
H             0.4039539337        0.6489638789        0.7703632422
H             0.9039539337        0.8510361211        0.2296367578
H             0.2703632422        0.0960460663        0.3510361211
H             0.7296367578        0.5960460663        0.1489638789
H             0.7703632422        0.4039539337        0.6489638789
H             0.2296367578        0.9039539337        0.8510361211



     Writing config-only to output data dir ./out/AC_Ph_1.save/
     NEW-OLD atomic charge density approx. for the potential

     Check: negative core charge=   -0.000002
     extrapolated charge   31.17049, renormalised to   32.00000

     total cpu time spent up to now is       48.8 secs

     Self-consistent Calculation

     iteration #  1     ecut=    60.00 Ry     beta= 0.40
     Davidson diagonalization with overlap

---- Real-time Memory Report at c_bands before calling an iterative solver
            57 MiB given to the printing process from OS
             0 MiB allocation reported by mallinfo(arena+hblkhd)
         23031 MiB available memory on the node where the printing process lives
------------------
     ethr =  1.00E-06,  avg # of iterations =  8.6

     total cpu time spent up to now is       55.8 secs

     total energy              =     -96.16700871 Ry
     estimated scf accuracy    <       0.06019981 Ry

     iteration #  2     ecut=    60.00 Ry     beta= 0.40
     Davidson diagonalization with overlap

---- Real-time Memory Report at c_bands before calling an iterative solver
            57 MiB given to the printing process from OS
             0 MiB allocation reported by mallinfo(arena+hblkhd)
         23022 MiB available memory on the node where the printing process lives
------------------
     ethr =  1.88E-04,  avg # of iterations =  3.0

     total cpu time spent up to now is       59.7 secs

     total energy              =     -96.23749401 Ry
     estimated scf accuracy    <       0.07114872 Ry

     iteration #  3     ecut=    60.00 Ry     beta= 0.40
     Davidson diagonalization with overlap

---- Real-time Memory Report at c_bands before calling an iterative solver
            57 MiB given to the printing process from OS
             0 MiB allocation reported by mallinfo(arena+hblkhd)
         23022 MiB available memory on the node where the printing process lives
------------------
     ethr =  1.88E-04,  avg # of iterations =  1.0

     total cpu time spent up to now is       62.1 secs

     total energy              =     -96.23273703 Ry
     estimated scf accuracy    <       0.02315528 Ry

     iteration #  4     ecut=    60.00 Ry     beta= 0.40
     Davidson diagonalization with overlap

---- Real-time Memory Report at c_bands before calling an iterative solver
            57 MiB given to the printing process from OS
             0 MiB allocation reported by mallinfo(arena+hblkhd)
         23022 MiB available memory on the node where the printing process lives
------------------
     ethr =  7.24E-05,  avg # of iterations =  2.0

     total cpu time spent up to now is       64.8 secs

     total energy              =     -96.23228274 Ry
     estimated scf accuracy    <       0.00365843 Ry

     iteration #  5     ecut=    60.00 Ry     beta= 0.40
     Davidson diagonalization with overlap

---- Real-time Memory Report at c_bands before calling an iterative solver
            57 MiB given to the printing process from OS
             0 MiB allocation reported by mallinfo(arena+hblkhd)
         23022 MiB available memory on the node where the printing process lives
------------------
     ethr =  1.14E-05,  avg # of iterations =  2.3

     total cpu time spent up to now is       68.2 secs

     total energy              =     -96.23383217 Ry
     estimated scf accuracy    <       0.00085467 Ry

     iteration #  6     ecut=    60.00 Ry     beta= 0.40
     Davidson diagonalization with overlap

---- Real-time Memory Report at c_bands before calling an iterative solver
            57 MiB given to the printing process from OS
             0 MiB allocation reported by mallinfo(arena+hblkhd)
         23020 MiB available memory on the node where the printing process lives
------------------
     ethr =  2.67E-06,  avg # of iterations =  2.1

     total cpu time spent up to now is       70.8 secs

     total energy              =     -96.23363513 Ry
     estimated scf accuracy    <       0.00058596 Ry

     iteration #  7     ecut=    60.00 Ry     beta= 0.40
     Davidson diagonalization with overlap

---- Real-time Memory Report at c_bands before calling an iterative solver
            57 MiB given to the printing process from OS
             0 MiB allocation reported by mallinfo(arena+hblkhd)
         23019 MiB available memory on the node where the printing process lives
------------------
     ethr =  1.83E-06,  avg # of iterations =  1.5

     total cpu time spent up to now is       73.2 secs

     total energy              =     -96.23366724 Ry
     estimated scf accuracy    <       0.00007873 Ry

     iteration #  8     ecut=    60.00 Ry     beta= 0.40
     Davidson diagonalization with overlap

---- Real-time Memory Report at c_bands before calling an iterative solver
            57 MiB given to the printing process from OS
             0 MiB allocation reported by mallinfo(arena+hblkhd)
         23017 MiB available memory on the node where the printing process lives
------------------
     ethr =  2.46E-07,  avg # of iterations =  1.0

     total cpu time spent up to now is       75.7 secs

     total energy              =     -96.23365953 Ry
     estimated scf accuracy    <       0.00004149 Ry

     iteration #  9     ecut=    60.00 Ry     beta= 0.40
     Davidson diagonalization with overlap

---- Real-time Memory Report at c_bands before calling an iterative solver
            57 MiB given to the printing process from OS
             0 MiB allocation reported by mallinfo(arena+hblkhd)
         23015 MiB available memory on the node where the printing process lives
------------------
     ethr =  1.30E-07,  avg # of iterations =  2.0

     total cpu time spent up to now is       78.4 secs

     total energy              =     -96.23366224 Ry
     estimated scf accuracy    <       0.00000785 Ry

     iteration # 10     ecut=    60.00 Ry     beta= 0.40
     Davidson diagonalization with overlap

---- Real-time Memory Report at c_bands before calling an iterative solver
            57 MiB given to the printing process from OS
             0 MiB allocation reported by mallinfo(arena+hblkhd)
         23015 MiB available memory on the node where the printing process lives
------------------
     ethr =  2.45E-08,  avg # of iterations =  1.0

     total cpu time spent up to now is       80.9 secs

     total energy              =     -96.23366065 Ry
     estimated scf accuracy    <       0.00000431 Ry

     iteration # 11     ecut=    60.00 Ry     beta= 0.40
     Davidson diagonalization with overlap

---- Real-time Memory Report at c_bands before calling an iterative solver
            57 MiB given to the printing process from OS
             0 MiB allocation reported by mallinfo(arena+hblkhd)
         23013 MiB available memory on the node where the printing process lives
------------------
     ethr =  1.35E-08,  avg # of iterations =  2.0

     total cpu time spent up to now is       84.0 secs

     total energy              =     -96.23366157 Ry
     estimated scf accuracy    <       0.00000002 Ry

     iteration # 12     ecut=    60.00 Ry     beta= 0.40
     Davidson diagonalization with overlap

---- Real-time Memory Report at c_bands before calling an iterative solver
            57 MiB given to the printing process from OS
             0 MiB allocation reported by mallinfo(arena+hblkhd)
         23013 MiB available memory on the node where the printing process lives
------------------
     ethr =  7.04E-11,  avg # of iterations =  2.9

     total cpu time spent up to now is       87.5 secs

     total energy              =     -96.23366159 Ry
     estimated scf accuracy    <          5.3E-09 Ry

     iteration # 13     ecut=    60.00 Ry     beta= 0.40
     Davidson diagonalization with overlap

---- Real-time Memory Report at c_bands before calling an iterative solver
            57 MiB given to the printing process from OS
             0 MiB allocation reported by mallinfo(arena+hblkhd)
         23013 MiB available memory on the node where the printing process lives
------------------
     ethr =  1.67E-11,  avg # of iterations =  1.0

     total cpu time spent up to now is       89.9 secs

     End of self-consistent calculation

          k = 0.0000 0.0000 0.0000 (  7249 PWs)   bands (ev):

   -17.3483 -16.6846 -16.6846 -16.6846  -7.5817  -7.5817  -7.5817  -6.7501
    -6.7501  -6.5174  -6.5174  -6.5174  -2.2529  -2.2529  -2.2529  -1.6975
     2.6612   5.9710   5.9710   5.9710

     occupation numbers 
     1.0000   1.0000   1.0000   1.0000   1.0000   1.0000   1.0000   1.0000
     1.0000   1.0000   1.0000   1.0000   1.0000   1.0000   1.0000   1.0000
     0.0000   0.0000   0.0000   0.0000

          k = 0.0000 0.0000 0.1441 (  7296 PWs)   bands (ev):

   -17.3207 -16.7527 -16.6806 -16.6509  -7.5988  -7.5762  -7.5033  -6.7882
    -6.7276  -6.6330  -6.5417  -6.4417  -2.3583  -2.3083  -2.1489  -1.7216
     2.8681   5.7961   6.1390   6.2046

     occupation numbers 
     1.0000   1.0000   1.0000   1.0000   1.0000   1.0000   1.0000   1.0000
     1.0000   1.0000   1.0000   1.0000   1.0000   1.0000   1.0000   1.0000
     0.0000   0.0000   0.0000   0.0000

          k = 0.0000 0.0000 0.2882 (  7328 PWs)   bands (ev):

   -17.2422 -16.8580 -16.6699 -16.6408  -7.5756  -7.5612  -7.3644  -6.8879
    -6.7407  -6.6798  -6.6004  -6.4294  -2.4500  -2.4189  -2.0533  -1.7879
     3.4220   5.5174   6.4905   6.5753

     occupation numbers 
     1.0000   1.0000   1.0000   1.0000   1.0000   1.0000   1.0000   1.0000
     1.0000   1.0000   1.0000   1.0000   1.0000   1.0000   1.0000   1.0000
     0.0000   0.0000   0.0000   0.0000

          k = 0.0000 0.0000 0.4322 (  7344 PWs)   bands (ev):

   -17.1253 -16.9894 -16.6564 -16.6449  -7.5485  -7.5457  -7.1918  -7.0258
    -6.7835  -6.7348  -6.5567  -6.4764  -2.5047  -2.4971  -1.9643  -1.8752
     4.1725   4.9398   6.8334   6.9826

     occupation numbers 
     1.0000   1.0000   1.0000   1.0000   1.0000   1.0000   1.0000   1.0000
     1.0000   1.0000   1.0000   1.0000   1.0000   1.0000   1.0000   1.0000
     0.0000   0.0000   0.0000   0.0000

          k = 0.0000 0.1441 0.1441 (  7331 PWs)   bands (ev):

   -17.2942 -16.7753 -16.6951 -16.6426  -7.5855  -7.5779  -7.4628  -6.8044
    -6.7456  -6.6332  -6.6090  -6.4054  -2.3888  -2.3623  -2.1050  -1.7438
     3.0586   5.8097   6.1525   6.3876

     occupation numbers 
     1.0000   1.0000   1.0000   1.0000   1.0000   1.0000   1.0000   1.0000
     1.0000   1.0000   1.0000   1.0000   1.0000   1.0000   1.0000   1.0000
     0.0000   0.0000   0.0000   0.0000

          k = 0.0000 0.1441 0.2882 (  7325 PWs)   bands (ev):

   -17.2188 -16.8583 -16.6917 -16.6434  -7.5739  -7.5605  -7.3532  -6.8715
    -6.8104  -6.6887  -6.6009  -6.3957  -2.4525  -2.4486  -2.0315  -1.8029
     3.5768   5.6371   6.3046   6.7913

     occupation numbers 
     1.0000   1.0000   1.0000   1.0000   1.0000   1.0000   1.0000   1.0000
     1.0000   1.0000   1.0000   1.0000   1.0000   1.0000   1.0000   1.0000
     0.0000   0.0000   0.0000   0.0000

          k = 0.0000 0.1441 0.4322 (  7354 PWs)   bands (ev):

   -17.1071 -16.9787 -16.6745 -16.6560  -7.5609  -7.5505  -7.1955  -7.0197
    -6.8253  -6.7671  -6.5207  -6.4405  -2.5039  -2.4996  -1.9565  -1.8793
     4.2969   5.0575   6.6619   6.9987

     occupation numbers 
     1.0000   1.0000   1.0000   1.0000   1.0000   1.0000   1.0000   1.0000
     1.0000   1.0000   1.0000   1.0000   1.0000   1.0000   1.0000   1.0000
     0.0000   0.0000   0.0000   0.0000

          k = 0.0000 0.2882 0.2882 (  7349 PWs)   bands (ev):

   -17.1529 -16.8796 -16.7224 -16.6600  -7.5782  -7.5437  -7.3295  -6.9493
    -6.8434  -6.6953  -6.5671  -6.3844  -2.4947  -2.4643  -1.9897  -1.8414
     4.0083   5.7759   6.1891   7.0300

     occupation numbers 
     1.0000   1.0000   1.0000   1.0000   1.0000   1.0000   1.0000   1.0000
     1.0000   1.0000   1.0000   1.0000   1.0000   1.0000   1.0000   1.0000
     0.0000   0.0000   0.0000   0.0000

          k = 0.0000 0.2882 0.4322 (  7340 PWs)   bands (ev):

   -17.0575 -16.9546 -16.7166 -16.6883  -7.5714  -7.5563  -7.2379  -7.0974
    -6.8100  -6.7449  -6.4863  -6.4155  -2.5079  -2.4936  -1.9408  -1.8905
     4.6467   5.3793   6.2820   6.7581

     occupation numbers 
     1.0000   1.0000   1.0000   1.0000   1.0000   1.0000   1.0000   1.0000
     1.0000   1.0000   1.0000   1.0000   1.0000   1.0000   1.0000   1.0000
     0.0000   0.0000   0.0000   0.0000

          k = 0.0000 0.4322 0.4322 (  7349 PWs)   bands (ev):

   -16.9928 -16.9483 -16.7473 -16.7292  -7.5641  -7.5523  -7.2762  -7.2206
    -6.7262  -6.6903  -6.4798  -6.4437  -2.5016  -2.4930  -1.9243  -1.9066
     5.1587   5.7225   5.8523   6.3159

     occupation numbers 
     1.0000   1.0000   1.0000   1.0000   1.0000   1.0000   1.0000   1.0000
     1.0000   1.0000   1.0000   1.0000   1.0000   1.0000   1.0000   1.0000
     0.0000   0.0000   0.0000   0.0000

          k = 0.1441 0.1441 0.1441 (  7349 PWs)   bands (ev):

   -17.2687 -16.7897 -16.7081 -16.6424  -7.5845  -7.5703  -7.4379  -6.8200
    -6.7381  -6.7045  -6.6024  -6.3802  -2.4053  -2.4034  -2.0737  -1.7642
     3.2334   5.8316   6.2127   6.4975

     occupation numbers 
     1.0000   1.0000   1.0000   1.0000   1.0000   1.0000   1.0000   1.0000
     1.0000   1.0000   1.0000   1.0000   1.0000   1.0000   1.0000   1.0000
     0.0000   0.0000   0.0000   0.0000

          k = 0.1441 0.1441 0.2882 (  7322 PWs)   bands (ev):

   -17.1964 -16.8577 -16.7083 -16.6503  -7.5870  -7.5513  -7.3635  -6.8875
    -6.8272  -6.7013  -6.5788  -6.3733  -2.4729  -2.4423  -2.0158  -1.8175
     3.7150   5.6854   6.3786   6.8163

     occupation numbers 
     1.0000   1.0000   1.0000   1.0000   1.0000   1.0000   1.0000   1.0000
     1.0000   1.0000   1.0000   1.0000   1.0000   1.0000   1.0000   1.0000
     0.0000   0.0000   0.0000   0.0000

          k = 0.1441 0.1441 0.4322 (  7345 PWs)   bands (ev):

   -17.0897 -16.9683 -16.6899 -16.6679  -7.5766  -7.5564  -7.2355  -7.0654
    -6.8027  -6.7360  -6.5040  -6.4199  -2.5032  -2.4856  -1.9531  -1.8855
     4.3966   5.1294   6.6955   7.0398

     occupation numbers 
     1.0000   1.0000   1.0000   1.0000   1.0000   1.0000   1.0000   1.0000
     1.0000   1.0000   1.0000   1.0000   1.0000   1.0000   1.0000   1.0000
     0.0000   0.0000   0.0000   0.0000

          k = 0.1441 0.2882 0.2882 (  7354 PWs)   bands (ev):

   -17.1333 -16.8751 -16.7351 -16.6705  -7.5967  -7.5564  -7.3635  -7.0118
    -6.8139  -6.6646  -6.5413  -6.3562  -2.4921  -2.4485  -1.9822  -1.8549
     4.1092   5.8016   6.2164   6.9542

     occupation numbers 
     1.0000   1.0000   1.0000   1.0000   1.0000   1.0000   1.0000   1.0000
     1.0000   1.0000   1.0000   1.0000   1.0000   1.0000   1.0000   1.0000
     0.0000   0.0000   0.0000   0.0000

          k = 0.1441 0.2882 0.4322 (  7349 PWs)   bands (ev):

   -17.0423 -16.9448 -16.7282 -16.6997  -7.5960  -7.5782  -7.3016  -7.1728
    -6.7504  -6.6833  -6.4627  -6.3875  -2.4886  -2.4678  -1.9436  -1.9006
     4.7024   5.3965   6.2666   6.6593

     occupation numbers 
     1.0000   1.0000   1.0000   1.0000   1.0000   1.0000   1.0000   1.0000
     1.0000   1.0000   1.0000   1.0000   1.0000   1.0000   1.0000   1.0000
     0.0000   0.0000   0.0000   0.0000

          k = 0.1441 0.4322 0.4322 (  7329 PWs)   bands (ev):

   -16.9804 -16.9379 -16.7569 -16.7391  -7.5955  -7.5836  -7.3506  -7.2985
    -6.6587  -6.6203  -6.4477  -6.4079  -2.4673  -2.4568  -1.9343  -1.9195
     5.1634   5.6933   5.7988   6.2022

     occupation numbers 
     1.0000   1.0000   1.0000   1.0000   1.0000   1.0000   1.0000   1.0000
     1.0000   1.0000   1.0000   1.0000   1.0000   1.0000   1.0000   1.0000
     0.0000   0.0000   0.0000   0.0000

          k = 0.2882 0.2882 0.2882 (  7331 PWs)   bands (ev):

   -17.0786 -16.8757 -16.7612 -16.6967  -7.6199  -7.5928  -7.4203  -7.1640
    -6.7342  -6.5725  -6.5068  -6.3252  -2.4715  -2.4198  -1.9687  -1.8899
     4.4071   5.8322   6.1894   6.4613

     occupation numbers 
     1.0000   1.0000   1.0000   1.0000   1.0000   1.0000   1.0000   1.0000
     1.0000   1.0000   1.0000   1.0000   1.0000   1.0000   1.0000   1.0000
     0.0000   0.0000   0.0000   0.0000

          k = 0.2882 0.2882 0.4322 (  7361 PWs)   bands (ev):

   -17.0009 -16.9212 -16.7590 -16.7297  -7.6326  -7.6215  -7.4176  -7.3195
    -6.6366  -6.5629  -6.4246  -6.3463  -2.4340  -2.4094  -1.9551  -1.9295
     4.8808   5.4686   6.1165   6.2633

     occupation numbers 
     1.0000   1.0000   1.0000   1.0000   1.0000   1.0000   1.0000   1.0000
     1.0000   1.0000   1.0000   1.0000   1.0000   1.0000   1.0000   1.0000
     0.0000   0.0000   0.0000   0.0000

          k = 0.2882 0.4322 0.4322 (  7346 PWs)   bands (ev):

   -16.9465 -16.9101 -16.7843 -16.7664  -7.6486  -7.6418  -7.4882  -7.4466
    -6.5329  -6.4889  -6.3917  -6.3467  -2.3741  -2.3621  -1.9705  -1.9630
     5.2014   5.6199   5.6769   5.9038

     occupation numbers 
     1.0000   1.0000   1.0000   1.0000   1.0000   1.0000   1.0000   1.0000
     1.0000   1.0000   1.0000   1.0000   1.0000   1.0000   1.0000   1.0000
     0.0000   0.0000   0.0000   0.0000

          k = 0.4322 0.4322 0.4322 (  7355 PWs)   bands (ev):

   -16.9017 -16.8808 -16.8166 -16.8026  -7.6719  -7.6669  -7.5883  -7.5676
    -6.4288  -6.3931  -6.3617  -6.3260  -2.2634  -2.2564  -2.0314  -2.0310
     5.3256   5.5533   5.5754   5.5773

     occupation numbers 
     1.0000   1.0000   1.0000   1.0000   1.0000   1.0000   1.0000   1.0000
     1.0000   1.0000   1.0000   1.0000   1.0000   1.0000   1.0000   1.0000
     0.0000   0.0000   0.0000   0.0000

          k = 0.0000 0.2882 0.1441 (  7325 PWs)   bands (ev):

   -17.2188 -16.8583 -16.6917 -16.6434  -7.5794  -7.5494  -7.3617  -6.8940
    -6.7764  -6.6835  -6.6088  -6.4017  -2.4644  -2.4348  -2.0332  -1.8029
     3.5757   5.5901   6.5187   6.6458

     occupation numbers 
     1.0000   1.0000   1.0000   1.0000   1.0000   1.0000   1.0000   1.0000
     1.0000   1.0000   1.0000   1.0000   1.0000   1.0000   1.0000   1.0000
     0.0000   0.0000   0.0000   0.0000

          k = 0.0000 0.4322 0.1441 (  7354 PWs)   bands (ev):

   -17.1071 -16.9787 -16.6745 -16.6560  -7.5609  -7.5417  -7.2160  -7.0448
    -6.7920  -6.7288  -6.5417  -6.4549  -2.5082  -2.4921  -1.9585  -1.8800
     4.2895   5.0316   6.9494   6.9832

     occupation numbers 
     1.0000   1.0000   1.0000   1.0000   1.0000   1.0000   1.0000   1.0000
     1.0000   1.0000   1.0000   1.0000   1.0000   1.0000   1.0000   1.0000
     0.0000   0.0000   0.0000   0.0000

          k = 0.0000 0.4322 0.2882 (  7340 PWs)   bands (ev):

   -17.0575 -16.9546 -16.7166 -16.6883  -7.5689  -7.5455  -7.2623  -7.1221
    -6.7755  -6.7006  -6.5136  -6.4322  -2.5081  -2.4890  -1.9433  -1.8916
     4.6284   5.3007   6.5677   6.9617

     occupation numbers 
     1.0000   1.0000   1.0000   1.0000   1.0000   1.0000   1.0000   1.0000
     1.0000   1.0000   1.0000   1.0000   1.0000   1.0000   1.0000   1.0000
     0.0000   0.0000   0.0000   0.0000

          k =-0.1441 0.4322 0.2882 (  7349 PWs)   bands (ev):

   -17.0423 -16.9448 -16.7282 -16.6997  -7.5946  -7.5725  -7.3123  -7.1821
    -6.7361  -6.6625  -6.4772  -6.3957  -2.4883  -2.4656  -1.9450  -1.9012
     4.6908   5.3457   6.4384   6.7451

     occupation numbers 
     1.0000   1.0000   1.0000   1.0000   1.0000   1.0000   1.0000   1.0000
     1.0000   1.0000   1.0000   1.0000   1.0000   1.0000   1.0000   1.0000
     0.0000   0.0000   0.0000   0.0000

     the Fermi energy is     0.1685 ev

!    total energy              =     -96.23366159 Ry
     estimated scf accuracy    <          2.8E-09 Ry
     smearing contrib. (-TS)   =       0.00000000 Ry
     internal energy E=F+TS    =     -96.23366159 Ry

     The total energy is F=E-TS. E is the sum of the following terms:
     one-electron contribution =     -61.42159403 Ry
     hartree contribution      =      40.10826727 Ry
     xc contribution           =     -31.76523556 Ry
     ewald contribution        =     -43.15509927 Ry

     convergence has been achieved in  13 iterations

     Forces acting on atoms (cartesian axes, Ry/au):

     atom    1 type  2   force =    -0.00708684   -0.00708684   -0.00708684
     atom    2 type  2   force =     0.00708684    0.00708684   -0.00708684
     atom    3 type  2   force =     0.00708684   -0.00708684    0.00708684
     atom    4 type  2   force =    -0.00708684    0.00708684    0.00708684
     atom    5 type  1   force =     0.01048870    0.00479558   -0.00775157
     atom    6 type  1   force =    -0.01048870   -0.00479558   -0.00775157
     atom    7 type  1   force =    -0.01048870    0.00479558    0.00775157
     atom    8 type  1   force =     0.01048870   -0.00479558    0.00775157
     atom    9 type  1   force =    -0.00775157    0.01048870    0.00479558
     atom   10 type  1   force =    -0.00775157   -0.01048870   -0.00479558
     atom   11 type  1   force =     0.00775157   -0.01048870    0.00479558
     atom   12 type  1   force =     0.00775157    0.01048870   -0.00479558
     atom   13 type  1   force =     0.00479558   -0.00775157    0.01048870
     atom   14 type  1   force =    -0.00479558   -0.00775157   -0.01048870
     atom   15 type  1   force =     0.00479558    0.00775157   -0.01048870
     atom   16 type  1   force =    -0.00479558    0.00775157    0.01048870
     The non-local contrib.  to forces
     atom    1 type  2   force =     0.69486125    0.69486125    0.69486125
     atom    2 type  2   force =    -0.69486125   -0.69486125    0.69486125
     atom    3 type  2   force =    -0.69486125    0.69486125   -0.69486125
     atom    4 type  2   force =     0.69486125   -0.69486125   -0.69486125
     atom    5 type  1   force =    -0.07411386   -0.03457828    0.05052395
     atom    6 type  1   force =     0.07411386    0.03457828    0.05052395
     atom    7 type  1   force =     0.07411386   -0.03457828   -0.05052395
     atom    8 type  1   force =    -0.07411386    0.03457828   -0.05052395
     atom    9 type  1   force =     0.05052395   -0.07411386   -0.03457828
     atom   10 type  1   force =     0.05052395    0.07411386    0.03457828
     atom   11 type  1   force =    -0.05052395    0.07411386   -0.03457828
     atom   12 type  1   force =    -0.05052395   -0.07411386    0.03457828
     atom   13 type  1   force =    -0.03457828    0.05052395   -0.07411386
     atom   14 type  1   force =     0.03457828    0.05052395    0.07411386
     atom   15 type  1   force =    -0.03457828   -0.05052395    0.07411386
     atom   16 type  1   force =     0.03457828   -0.05052395   -0.07411386
     The ionic contribution  to forces
     atom    1 type  2   force =    -1.14151362   -1.14151362   -1.14151362
     atom    2 type  2   force =     1.14151362    1.14151362   -1.14151362
     atom    3 type  2   force =     1.14151362   -1.14151362    1.14151362
     atom    4 type  2   force =    -1.14151362    1.14151362    1.14151362
     atom    5 type  1   force =     1.89317970    0.98064139   -1.19121644
     atom    6 type  1   force =    -1.89317970   -0.98064139   -1.19121644
     atom    7 type  1   force =    -1.89317970    0.98064139    1.19121644
     atom    8 type  1   force =     1.89317970   -0.98064139    1.19121644
     atom    9 type  1   force =    -1.19121644    1.89317970    0.98064139
     atom   10 type  1   force =    -1.19121644   -1.89317970   -0.98064139
     atom   11 type  1   force =     1.19121644   -1.89317970    0.98064139
     atom   12 type  1   force =     1.19121644    1.89317970   -0.98064139
     atom   13 type  1   force =     0.98064139   -1.19121644    1.89317970
     atom   14 type  1   force =    -0.98064139   -1.19121644   -1.89317970
     atom   15 type  1   force =     0.98064139    1.19121644   -1.89317970
     atom   16 type  1   force =    -0.98064139    1.19121644    1.89317970
     The local contribution  to forces
     atom    1 type  2   force =     0.44906497    0.44906497    0.44906497
     atom    2 type  2   force =    -0.44906497   -0.44906497    0.44906497
     atom    3 type  2   force =    -0.44906497    0.44906497   -0.44906497
     atom    4 type  2   force =     0.44906497   -0.44906497   -0.44906497
     atom    5 type  1   force =    -1.80857576   -0.94126686    1.13294005
     atom    6 type  1   force =     1.80857576    0.94126686    1.13294005
     atom    7 type  1   force =     1.80857576   -0.94126686   -1.13294005
     atom    8 type  1   force =    -1.80857576    0.94126686   -1.13294005
     atom    9 type  1   force =     1.13294005   -1.80857576   -0.94126686
     atom   10 type  1   force =     1.13294005    1.80857576    0.94126686
     atom   11 type  1   force =    -1.13294005    1.80857576   -0.94126686
     atom   12 type  1   force =    -1.13294005   -1.80857576    0.94126686
     atom   13 type  1   force =    -0.94126686    1.13294005   -1.80857576
     atom   14 type  1   force =     0.94126686    1.13294005    1.80857576
     atom   15 type  1   force =    -0.94126686   -1.13294005    1.80857576
     atom   16 type  1   force =     0.94126686   -1.13294005   -1.80857576
     The core correction contribution to forces
     atom    1 type  2   force =    -0.00951103   -0.00951103   -0.00951103
     atom    2 type  2   force =     0.00951103    0.00951103   -0.00951103
     atom    3 type  2   force =     0.00951103   -0.00951103    0.00951103
     atom    4 type  2   force =    -0.00951103    0.00951103    0.00951103
     atom    5 type  1   force =     0.00000000    0.00000000    0.00000000
     atom    6 type  1   force =     0.00000000    0.00000000    0.00000000
     atom    7 type  1   force =     0.00000000    0.00000000    0.00000000
     atom    8 type  1   force =     0.00000000    0.00000000    0.00000000
     atom    9 type  1   force =     0.00000000    0.00000000    0.00000000
     atom   10 type  1   force =     0.00000000    0.00000000    0.00000000
     atom   11 type  1   force =     0.00000000    0.00000000    0.00000000
     atom   12 type  1   force =     0.00000000    0.00000000    0.00000000
     atom   13 type  1   force =     0.00000000    0.00000000    0.00000000
     atom   14 type  1   force =     0.00000000    0.00000000    0.00000000
     atom   15 type  1   force =     0.00000000    0.00000000    0.00000000
     atom   16 type  1   force =     0.00000000    0.00000000    0.00000000
     The Hubbard contrib.    to forces
     atom    1 type  2   force =     0.00000000    0.00000000    0.00000000
     atom    2 type  2   force =     0.00000000    0.00000000    0.00000000
     atom    3 type  2   force =     0.00000000    0.00000000    0.00000000
     atom    4 type  2   force =     0.00000000    0.00000000    0.00000000
     atom    5 type  1   force =     0.00000000    0.00000000    0.00000000
     atom    6 type  1   force =     0.00000000    0.00000000    0.00000000
     atom    7 type  1   force =     0.00000000    0.00000000    0.00000000
     atom    8 type  1   force =     0.00000000    0.00000000    0.00000000
     atom    9 type  1   force =     0.00000000    0.00000000    0.00000000
     atom   10 type  1   force =     0.00000000    0.00000000    0.00000000
     atom   11 type  1   force =     0.00000000    0.00000000    0.00000000
     atom   12 type  1   force =     0.00000000    0.00000000    0.00000000
     atom   13 type  1   force =     0.00000000    0.00000000    0.00000000
     atom   14 type  1   force =     0.00000000    0.00000000    0.00000000
     atom   15 type  1   force =     0.00000000    0.00000000    0.00000000
     atom   16 type  1   force =     0.00000000    0.00000000    0.00000000
     The SCF correction term to forces
     atom    1 type  2   force =     0.00001160    0.00001160    0.00001160
     atom    2 type  2   force =    -0.00001160   -0.00001160    0.00001160
     atom    3 type  2   force =    -0.00001160    0.00001160   -0.00001160
     atom    4 type  2   force =     0.00001160   -0.00001160   -0.00001160
     atom    5 type  1   force =    -0.00000138   -0.00000067    0.00000087
     atom    6 type  1   force =     0.00000138    0.00000067    0.00000087
     atom    7 type  1   force =     0.00000138   -0.00000067   -0.00000087
     atom    8 type  1   force =    -0.00000138    0.00000067   -0.00000087
     atom    9 type  1   force =     0.00000087   -0.00000138   -0.00000067
     atom   10 type  1   force =     0.00000087    0.00000138    0.00000067
     atom   11 type  1   force =    -0.00000087    0.00000138   -0.00000067
     atom   12 type  1   force =    -0.00000087   -0.00000138    0.00000067
     atom   13 type  1   force =    -0.00000067    0.00000087   -0.00000138
     atom   14 type  1   force =     0.00000067    0.00000087    0.00000138
     atom   15 type  1   force =    -0.00000067   -0.00000087    0.00000138
     atom   16 type  1   force =     0.00000067   -0.00000087   -0.00000138

     Total force =     0.054036     Total SCF correction =     0.000041


     Computing stress (Cartesian axis) and pressure

          total   stress  (Ry/bohr**3)                   (kbar)     P=       19.66
   0.00013362   0.00000000   0.00000000           19.66        0.00        0.00
   0.00000000   0.00013362   0.00000000            0.00       19.66        0.00
   0.00000000   0.00000000   0.00013362            0.00        0.00       19.66

     kinetic stress (kbar)   6582.60      0.00      0.00
                                0.00   6582.60      0.00
[...]
    -4.9599  -4.8483  -4.6834  -4.5972  -0.8355  -0.7852  -0.2701  -0.2541
     7.7936   8.2269   8.4468   8.7483

     occupation numbers 
     1.0000   1.0000   1.0000   1.0000   1.0000   1.0000   1.0000   1.0000
     1.0000   1.0000   1.0000   1.0000   1.0000   1.0000   1.0000   1.0000
     0.0000   0.0000   0.0000   0.0000

          k = 0.3189 0.3189 0.3189 (  5295 PWs)   bands (ev):

   -15.6228 -15.1355 -15.0282 -14.9480  -6.4911  -6.3153  -6.2836  -5.8051
    -5.1643  -4.8760  -4.6075  -4.4103  -0.9322  -0.6603  -0.2608  -0.2207
     6.9453   7.9485   8.6655   8.6960

     occupation numbers 
     1.0000   1.0000   1.0000   1.0000   1.0000   1.0000   1.0000   1.0000
     1.0000   1.0000   1.0000   1.0000   1.0000   1.0000   1.0000   1.0000
     0.0000   0.0000   0.0000   0.0000

          k = 0.3189 0.3189 0.4784 (  5275 PWs)   bands (ev):

   -15.4491 -15.2592 -15.0276 -14.9914  -6.5072  -6.4421  -6.2828  -6.0936
    -4.9366  -4.7992  -4.5338  -4.4336  -0.8152  -0.6913  -0.2495  -0.2232
     7.3519   7.8614   8.4223   8.5955

     occupation numbers 
     1.0000   1.0000   1.0000   1.0000   1.0000   1.0000   1.0000   1.0000
     1.0000   1.0000   1.0000   1.0000   1.0000   1.0000   1.0000   1.0000
     0.0000   0.0000   0.0000   0.0000

          k = 0.3189 0.4784 0.4784 (  5278 PWs)   bands (ev):

   -15.3243 -15.2266 -15.0975 -15.0600  -6.5538  -6.5032  -6.4486  -6.3408
    -4.7092  -4.6211  -4.5031  -4.4293  -0.6861  -0.6254  -0.2362  -0.2175
     7.5280   7.8851   7.9618   8.1396

     occupation numbers 
     1.0000   1.0000   1.0000   1.0000   1.0000   1.0000   1.0000   1.0000
     1.0000   1.0000   1.0000   1.0000   1.0000   1.0000   1.0000   1.0000
     0.0000   0.0000   0.0000   0.0000

          k = 0.4784 0.4784 0.4784 (  5304 PWs)   bands (ev):

   -15.2431 -15.1903 -15.1326 -15.1094  -6.6477  -6.6373  -6.6076  -6.5545
    -4.5092  -4.4335  -4.4318  -4.3613  -0.5056  -0.4664  -0.2480  -0.2273
     7.4344   7.6351   7.6395   7.6657

     occupation numbers 
     1.0000   1.0000   1.0000   1.0000   1.0000   1.0000   1.0000   1.0000
     1.0000   1.0000   1.0000   1.0000   1.0000   1.0000   1.0000   1.0000
     0.0000   0.0000   0.0000   0.0000

          k = 0.0000 0.3189 0.1595 (  5287 PWs)   bands (ev):

   -15.9259 -15.1350 -14.8671 -14.8020  -6.3468  -6.2337  -6.1401  -5.4852
    -5.1471  -4.9604  -4.8610  -4.5759  -0.8580  -0.6991  -0.3305  -0.2273
     6.1779   7.5127   8.1881   8.2770

     occupation numbers 
     1.0000   1.0000   1.0000   1.0000   1.0000   1.0000   1.0000   1.0000
     1.0000   1.0000   1.0000   1.0000   1.0000   1.0000   1.0000   1.0000
     0.0000   0.0000   0.0000   0.0000

          k = 0.0000 0.4784 0.1595 (  5275 PWs)   bands (ev):

   -15.6873 -15.4054 -14.8430 -14.8188  -6.2118  -6.0915  -6.0002  -5.7283
    -5.2011  -5.0288  -4.8414  -4.6931  -0.9157  -0.8389  -0.3426  -0.3006
     6.9754   7.5573   8.7573   8.8766

     occupation numbers 
     1.0000   1.0000   1.0000   1.0000   1.0000   1.0000   1.0000   1.0000
     1.0000   1.0000   1.0000   1.0000   1.0000   1.0000   1.0000   1.0000
     0.0000   0.0000   0.0000   0.0000

          k = 0.0000 0.4784 0.3189 (  5285 PWs)   bands (ev):

   -15.5718 -15.3303 -14.9618 -14.8977  -6.2481  -6.1284  -6.0525  -5.8080
    -5.2067  -4.9765  -4.8243  -4.6570  -0.9195  -0.8294  -0.3252  -0.2786
     7.3647   7.9199   9.0609   9.3073

     occupation numbers 
     1.0000   1.0000   1.0000   1.0000   1.0000   1.0000   1.0000   1.0000
     1.0000   1.0000   1.0000   1.0000   1.0000   1.0000   1.0000   1.0000
     0.0000   0.0000   0.0000   0.0000

          k =-0.1595 0.4784 0.3189 (  5273 PWs)   bands (ev):

   -15.5393 -15.3104 -14.9766 -14.9248  -6.3653  -6.2641  -6.0954  -5.8571
    -5.1509  -4.9713  -4.6783  -4.5559  -0.9000  -0.7873  -0.2919  -0.2602
     7.3423   7.8922   8.8670   9.2075

     occupation numbers 
     1.0000   1.0000   1.0000   1.0000   1.0000   1.0000   1.0000   1.0000
     1.0000   1.0000   1.0000   1.0000   1.0000   1.0000   1.0000   1.0000
     0.0000   0.0000   0.0000   0.0000

     the Fermi energy is     3.9318 ev

!    total energy              =     -96.20074467 Ry
     estimated scf accuracy    <          6.5E-13 Ry
     smearing contrib. (-TS)   =      -0.00000000 Ry
     internal energy E=F+TS    =     -96.20074467 Ry

     The total energy is F=E-TS. E is the sum of the following terms:
     one-electron contribution =     -40.79786517 Ry
     hartree contribution      =      31.74280013 Ry
     xc contribution           =     -31.87948080 Ry
     ewald contribution        =     -55.26619883 Ry

     convergence has been achieved in  13 iterations

     Forces acting on atoms (cartesian axes, Ry/au):

     atom    1 type  2   force =    -0.00001152   -0.00001152   -0.00001152
     atom    2 type  2   force =     0.00001152    0.00001152   -0.00001152
     atom    3 type  2   force =     0.00001152   -0.00001152    0.00001152
     atom    4 type  2   force =    -0.00001152    0.00001152    0.00001152
     atom    5 type  1   force =     0.00005187   -0.00000416    0.00002579
     atom    6 type  1   force =    -0.00005187    0.00000416    0.00002579
     atom    7 type  1   force =    -0.00005187   -0.00000416   -0.00002579
     atom    8 type  1   force =     0.00005187    0.00000416   -0.00002579
     atom    9 type  1   force =     0.00002579    0.00005187   -0.00000416
     atom   10 type  1   force =     0.00002579   -0.00005187    0.00000416
     atom   11 type  1   force =    -0.00002579   -0.00005187   -0.00000416
     atom   12 type  1   force =    -0.00002579    0.00005187    0.00000416
     atom   13 type  1   force =    -0.00000416    0.00002579    0.00005187
     atom   14 type  1   force =     0.00000416    0.00002579   -0.00005187
     atom   15 type  1   force =    -0.00000416   -0.00002579   -0.00005187
     atom   16 type  1   force =     0.00000416   -0.00002579    0.00005187
     The non-local contrib.  to forces
     atom    1 type  2   force =     0.62771122    0.62771122    0.62771122
     atom    2 type  2   force =    -0.62771122   -0.62771122    0.62771122
     atom    3 type  2   force =    -0.62771122    0.62771122   -0.62771122
     atom    4 type  2   force =     0.62771122   -0.62771122   -0.62771122
     atom    5 type  1   force =    -0.07754756   -0.02216711    0.04769476
     atom    6 type  1   force =     0.07754756    0.02216711    0.04769476
     atom    7 type  1   force =     0.07754756   -0.02216711   -0.04769476
     atom    8 type  1   force =    -0.07754756    0.02216711   -0.04769476
     atom    9 type  1   force =     0.04769476   -0.07754756   -0.02216711
     atom   10 type  1   force =     0.04769476    0.07754756    0.02216711
     atom   11 type  1   force =    -0.04769476    0.07754756   -0.02216711
     atom   12 type  1   force =    -0.04769476   -0.07754756    0.02216711
     atom   13 type  1   force =    -0.02216711    0.04769476   -0.07754756
     atom   14 type  1   force =     0.02216711    0.04769476    0.07754756
     atom   15 type  1   force =    -0.02216711   -0.04769476    0.07754756
     atom   16 type  1   force =     0.02216711   -0.04769476   -0.07754756
     The ionic contribution  to forces
     atom    1 type  2   force =    -0.95863482   -0.95863482   -0.95863482
     atom    2 type  2   force =     0.95863482    0.95863482   -0.95863482
     atom    3 type  2   force =     0.95863482   -0.95863482    0.95863482
     atom    4 type  2   force =    -0.95863482    0.95863482    0.95863482
     atom    5 type  1   force =     1.88192250    0.58125525   -1.01213170
     atom    6 type  1   force =    -1.88192250   -0.58125525   -1.01213170
     atom    7 type  1   force =    -1.88192250    0.58125525    1.01213170
     atom    8 type  1   force =     1.88192250   -0.58125525    1.01213170
     atom    9 type  1   force =    -1.01213170    1.88192250    0.58125525
     atom   10 type  1   force =    -1.01213170   -1.88192250   -0.58125525
     atom   11 type  1   force =     1.01213170   -1.88192250    0.58125525
     atom   12 type  1   force =     1.01213170    1.88192250   -0.58125525
     atom   13 type  1   force =     0.58125525   -1.01213170    1.88192250
     atom   14 type  1   force =    -0.58125525   -1.01213170   -1.88192250
     atom   15 type  1   force =     0.58125525    1.01213170   -1.88192250
     atom   16 type  1   force =    -0.58125525    1.01213170    1.88192250
     The local contribution  to forces
     atom    1 type  2   force =     0.33962818    0.33962818    0.33962818
     atom    2 type  2   force =    -0.33962818   -0.33962818    0.33962818
     atom    3 type  2   force =    -0.33962818    0.33962818   -0.33962818
     atom    4 type  2   force =     0.33962818   -0.33962818   -0.33962818
     atom    5 type  1   force =    -1.80432299   -0.55909228    0.96446266
     atom    6 type  1   force =     1.80432299    0.55909228    0.96446266
     atom    7 type  1   force =     1.80432299   -0.55909228   -0.96446266
     atom    8 type  1   force =    -1.80432299    0.55909228   -0.96446266
     atom    9 type  1   force =     0.96446266   -1.80432299   -0.55909228
     atom   10 type  1   force =     0.96446266    1.80432299    0.55909228
     atom   11 type  1   force =    -0.96446266    1.80432299   -0.55909228
     atom   12 type  1   force =    -0.96446266   -1.80432299    0.55909228
     atom   13 type  1   force =    -0.55909228    0.96446266   -1.80432299
     atom   14 type  1   force =     0.55909228    0.96446266    1.80432299
     atom   15 type  1   force =    -0.55909228   -0.96446266    1.80432299
     atom   16 type  1   force =     0.55909228   -0.96446266   -1.80432299
     The core correction contribution to forces
     atom    1 type  2   force =    -0.00871632   -0.00871632   -0.00871632
     atom    2 type  2   force =     0.00871632    0.00871632   -0.00871632
     atom    3 type  2   force =     0.00871632   -0.00871632    0.00871632
     atom    4 type  2   force =    -0.00871632    0.00871632    0.00871632
     atom    5 type  1   force =     0.00000000    0.00000000    0.00000000
     atom    6 type  1   force =     0.00000000    0.00000000    0.00000000
     atom    7 type  1   force =     0.00000000    0.00000000    0.00000000
     atom    8 type  1   force =     0.00000000    0.00000000    0.00000000
     atom    9 type  1   force =     0.00000000    0.00000000    0.00000000
     atom   10 type  1   force =     0.00000000    0.00000000    0.00000000
     atom   11 type  1   force =     0.00000000    0.00000000    0.00000000
     atom   12 type  1   force =     0.00000000    0.00000000    0.00000000
     atom   13 type  1   force =     0.00000000    0.00000000    0.00000000
     atom   14 type  1   force =     0.00000000    0.00000000    0.00000000
     atom   15 type  1   force =     0.00000000    0.00000000    0.00000000
     atom   16 type  1   force =     0.00000000    0.00000000    0.00000000
     The Hubbard contrib.    to forces
     atom    1 type  2   force =     0.00000000    0.00000000    0.00000000
     atom    2 type  2   force =     0.00000000    0.00000000    0.00000000
     atom    3 type  2   force =     0.00000000    0.00000000    0.00000000
     atom    4 type  2   force =     0.00000000    0.00000000    0.00000000
     atom    5 type  1   force =     0.00000000    0.00000000    0.00000000
     atom    6 type  1   force =     0.00000000    0.00000000    0.00000000
     atom    7 type  1   force =     0.00000000    0.00000000    0.00000000
     atom    8 type  1   force =     0.00000000    0.00000000    0.00000000
     atom    9 type  1   force =     0.00000000    0.00000000    0.00000000
     atom   10 type  1   force =     0.00000000    0.00000000    0.00000000
     atom   11 type  1   force =     0.00000000    0.00000000    0.00000000
     atom   12 type  1   force =     0.00000000    0.00000000    0.00000000
     atom   13 type  1   force =     0.00000000    0.00000000    0.00000000
     atom   14 type  1   force =     0.00000000    0.00000000    0.00000000
     atom   15 type  1   force =     0.00000000    0.00000000    0.00000000
     atom   16 type  1   force =     0.00000000    0.00000000    0.00000000
     The SCF correction term to forces
     atom    1 type  2   force =     0.00000022    0.00000022    0.00000022
     atom    2 type  2   force =    -0.00000022   -0.00000022    0.00000022
     atom    3 type  2   force =    -0.00000022    0.00000022   -0.00000022
     atom    4 type  2   force =     0.00000022   -0.00000022   -0.00000022
     atom    5 type  1   force =    -0.00000008   -0.00000001    0.00000006
     atom    6 type  1   force =     0.00000008    0.00000001    0.00000006
     atom    7 type  1   force =     0.00000008   -0.00000001   -0.00000006
     atom    8 type  1   force =    -0.00000008    0.00000001   -0.00000006
     atom    9 type  1   force =     0.00000006   -0.00000008   -0.00000001
     atom   10 type  1   force =     0.00000006    0.00000008    0.00000001
     atom   11 type  1   force =    -0.00000006    0.00000008   -0.00000001
     atom   12 type  1   force =    -0.00000006   -0.00000008    0.00000001
     atom   13 type  1   force =    -0.00000001    0.00000006   -0.00000008
     atom   14 type  1   force =     0.00000001    0.00000006    0.00000008
     atom   15 type  1   force =    -0.00000001   -0.00000006    0.00000008
     atom   16 type  1   force =     0.00000001   -0.00000006   -0.00000008

     Total force =     0.000205     Total SCF correction =     0.000001


     Computing stress (Cartesian axis) and pressure

          total   stress  (Ry/bohr**3)                   (kbar)     P=       49.32
   0.00033529   0.00000000   0.00000000           49.32        0.00        0.00
   0.00000000   0.00033529   0.00000000            0.00       49.32        0.00
   0.00000000   0.00000000   0.00033529            0.00        0.00       49.32

     kinetic stress (kbar)   8957.44      0.00      0.00
                                0.00   8957.44      0.00
                                0.00      0.00   8957.44

     local   stress (kbar)  -5017.50      0.00      0.00
                                0.00  -5017.50      0.00
                                0.00      0.00  -5017.50

     nonloc. stress (kbar)    -45.76      0.00      0.00
                                0.00    -45.76      0.00
                                0.00      0.00    -45.76

     hartree stress (kbar)   2313.42     -0.00     -0.00
                               -0.00   2313.42      0.00
                               -0.00      0.00   2313.42

     exc-cor stress (kbar)  -1530.61     -0.00     -0.00
                               -0.00  -1530.61     -0.00
                               -0.00     -0.00  -1530.61

     corecor stress (kbar)   -599.86      0.00      0.00
                                0.00   -599.86      0.00
                                0.00      0.00   -599.86

     ewald   stress (kbar)  -4027.81     -0.00     -0.00
                               -0.00  -4027.81     -0.00
                               -0.00     -0.00  -4027.81

     hubbard stress (kbar)      0.00      0.00      0.00
                                0.00      0.00      0.00
                                0.00      0.00      0.00

     DFT-D   stress (kbar)      0.00      0.00      0.00
                                0.00      0.00      0.00
                                0.00      0.00      0.00

     XDM     stress (kbar)      0.00      0.00      0.00
                                0.00      0.00      0.00
                                0.00      0.00      0.00

     dft-nl  stress (kbar)      0.00      0.00      0.00
                                0.00      0.00      0.00
                                0.00      0.00      0.00

     TS-vdW  stress (kbar)      0.00      0.00      0.00
                                0.00      0.00      0.00
                                0.00      0.00      0.00

     MDB     stress (kbar)      0.00      0.00      0.00
                                0.00      0.00      0.00
                                0.00      0.00      0.00

     3D-RISM stress (kbar)      0.00      0.00      0.00
                                0.00      0.00      0.00
                                0.00      0.00      0.00


     Writing all to output data dir ./out/AC_Ph_1.save/

     init_run     :      7.26s CPU      7.33s WALL (       2 calls)
     electrons    :   1141.79s CPU   1159.02s WALL (      28 calls)
     update_pot   :     73.31s CPU     73.47s WALL (      26 calls)
     forces       :     59.24s CPU     59.68s WALL (      28 calls)
     stress       :    100.05s CPU    100.48s WALL (      28 calls)

     Called by init_run:
     wfcinit      :      2.28s CPU      2.30s WALL (       2 calls)
     wfcinit:atom :      0.02s CPU      0.02s WALL (      48 calls)
     wfcinit:wfcr :      2.18s CPU      2.20s WALL (      48 calls)
     potinit      :      1.99s CPU      2.00s WALL (       2 calls)
     hinit0       :      2.36s CPU      2.38s WALL (       2 calls)

     Called by electrons:
     c_bands      :    955.23s CPU    967.98s WALL (     358 calls)
     sum_band     :    148.04s CPU    150.73s WALL (     358 calls)
     v_of_rho     :     19.26s CPU     20.10s WALL (     383 calls)
     v_h          :      1.20s CPU      1.30s WALL (     383 calls)
     v_xc         :     20.71s CPU     21.55s WALL (     439 calls)
     newd         :     16.39s CPU     16.63s WALL (     383 calls)
     mix_rho      :      3.03s CPU      3.18s WALL (     358 calls)

     Called by c_bands:
     init_us_2    :      9.24s CPU      9.32s WALL (   18576 calls)
     init_us_2:cp :      9.15s CPU      9.26s WALL (   18576 calls)
     cegterg      :    937.49s CPU    949.91s WALL (    8592 calls)

     Called by sum_band:
     sum_band:wei :      0.05s CPU      0.05s WALL (     358 calls)
     sum_band:loo :    129.26s CPU    131.58s WALL (     358 calls)
     sum_band:buf :      1.03s CPU      1.05s WALL (    8592 calls)
     sum_band:ini :      4.17s CPU      4.19s WALL (    8592 calls)
     sum_band:cal :     41.98s CPU     42.78s WALL (    8592 calls)
     sum_band:bec :      0.31s CPU      0.31s WALL (    8592 calls)
     addusdens    :     14.74s CPU     14.81s WALL (     358 calls)
     addusd:skk   :      0.92s CPU      0.93s WALL (     716 calls)
     addusd:dgemm :      7.80s CPU      7.82s WALL (     716 calls)
     addusd:qvan2 :      4.31s CPU      4.31s WALL (     716 calls)

     Called by *egterg:
     cdiaghg      :     32.18s CPU     32.35s WALL (   27342 calls)
     cegterg:over :    105.68s CPU    106.82s WALL (   19446 calls)
     cegterg:upda :     27.00s CPU     27.14s WALL (   19446 calls)
     cegterg:last :     59.32s CPU     59.56s WALL (   16899 calls)
     h_psi        :    598.43s CPU    608.72s WALL (   28086 calls)
     s_psi        :     58.69s CPU     58.95s WALL (   28086 calls)
     g_psi        :      3.73s CPU      3.75s WALL (   19446 calls)

     Called by h_psi:
     h_psi:calbec :    113.39s CPU    115.74s WALL (   28086 calls)
     vloc_psi     :    423.74s CPU    431.44s WALL (   28086 calls)
     add_vuspsi   :     58.62s CPU     58.86s WALL (   28086 calls)

     General routines
     calbec       :    172.66s CPU    176.08s WALL (   40038 calls)
     fft          :     16.10s CPU     17.05s WALL (    5652 calls)
     ffts         :      0.82s CPU      0.85s WALL (     741 calls)
     fftw         :    459.42s CPU    467.12s WALL ( 1092788 calls)
     interpolate  :      1.54s CPU      1.61s WALL (     383 calls)

     Parallel routines

     PWSCF        :  23m 5.02s CPU  23m23.57s WALL


   This run was terminated on:   7:47:39  14Dec2022            

=------------------------------------------------------------------------------=
   JOB DONE.
=------------------------------------------------------------------------------=
