
     Program PWSCF v.7.1 starts on 14Dec2022 at  1:19:25 

     This program is part of the open-source Quantum ESPRESSO suite
     for quantum simulation of materials; please cite
         "P. Giannozzi et al., J. Phys.:Condens. Matter 21 395502 (2009);
         "P. Giannozzi et al., J. Phys.:Condens. Matter 29 465901 (2017);
         "P. Giannozzi et al., J. Chem. Phys. 152 154105 (2020);
          URL http://www.quantum-espresso.org", 
     in publications or presentations arising from this work. More details at
     http://www.quantum-espresso.org/quote

     Parallel version (MPI), running on     8 processors

     MPI processes distributed on     1 nodes
     25111 MiB available memory on the printing compute node when the environment starts

     Reading input from pwscf.in

     Current dimensions of program PWSCF are:
     Max number of different atomic species (ntypx) = 10
     Max number of k-points (npk) =  40000
     Max angular momentum in pseudopotentials (lmaxx) =  4
     Message from routine setup:
     using ibrav=0 with symmetry is DISCOURAGED, use correct ibrav instead

     R & G space division:  proc/nbgrp/npool/nimage =       8
     Subspace diagonalization in iterative solution of the eigenvalue problem:
     a serial algorithm will be used


     Parallelization info
     --------------------
     sticks:   dense  smooth     PW     G-vecs:    dense   smooth      PW
     Min         459     228     64                20879     7360    1103
     Max         460     229     66                20882     7363    1104
     Sum        3673    1829    517               167037    58893    8829

     Using Slab Decomposition



     bravais-lattice index     =            0
     lattice parameter (alat)  =       9.7982  a.u.
     unit-cell volume          =     940.6821 (a.u.)^3
     number of atoms/cell      =           16
     number of atomic types    =            2
     number of electrons       =        32.00
     number of Kohn-Sham states=           20
     kinetic-energy cutoff     =      60.0000  Ry
     charge density cutoff     =     480.0000  Ry
     scf convergence threshold =      3.2E-09
     mixing beta               =       0.4000
     number of iterations used =            8  plain     mixing
     Exchange-correlation= PBE
                           (   1   4   3   4   0   0   0)

     celldm(1)=   9.798230  celldm(2)=   0.000000  celldm(3)=   0.000000
     celldm(4)=   0.000000  celldm(5)=   0.000000  celldm(6)=   0.000000

     crystal axes: (cart. coord. in units of alat)
               a(1) = (   1.000000   0.000000   0.000000 )  
               a(2) = (   0.000000   1.000000   0.000000 )  
               a(3) = (   0.000000   0.000000   1.000000 )  

     reciprocal axes: (cart. coord. in units 2 pi/alat)
               b(1) = (  1.000000  0.000000  0.000000 )  
               b(2) = (  0.000000  1.000000  0.000000 )  
               b(3) = (  0.000000  0.000000  1.000000 )  


     PseudoPot. # 1 for H  read from file:
     ./pseudo/H.pbe-rrkjus_psl.1.0.0.UPF
     MD5 check sum: 3f4114867bd07edc7f1424d066fc1888
     Pseudo is Ultrasoft, Zval =  1.0
     Generated using &quot;atomic&quot; code by A. Dal Corso  v.6.3MaX
     Using radial grid of  929 points,  2 beta functions with: 
                l(1) =   0
                l(2) =   0
     Q(r) pseudized with 0 coefficients 


     PseudoPot. # 2 for N  read from file:
     ./pseudo/N.pbe-n-rrkjus_psl.1.0.0.UPF
     MD5 check sum: ada94e3ed05223de5319d0572dc76806
     Pseudo is Ultrasoft + core correction, Zval =  5.0
     Generated using &quot;atomic&quot; code by A. Dal Corso  v.6.3MaX
     Using radial grid of 1085 points,  4 beta functions with: 
                l(1) =   0
                l(2) =   0
                l(3) =   1
                l(4) =   1
     Q(r) pseudized with 0 coefficients 


     atomic species   valence    mass     pseudopotential
        H              1.00     1.00794     H ( 1.00)
        N              5.00    14.00670     N ( 1.00)

     12 Sym. Ops. (no inversion) found ( 9 have fractional translation)


                                    s                        frac. trans.

      isym =  1     identity                                     

 cryst.   s( 1) = (     1          0          0      )
                  (     0          1          0      )
                  (     0          0          1      )

 cart.    s( 1) = (  1.0000000  0.0000000  0.0000000 )
                  (  0.0000000  1.0000000  0.0000000 )
                  (  0.0000000  0.0000000  1.0000000 )


      isym =  2     180 deg rotation - cart. axis [0,0,1]        

 cryst.   s( 2) = (    -1          0          0      )    f =(  0.5000000 )
                  (     0         -1          0      )       (  0.0000000 )
                  (     0          0          1      )       ( -0.5000000 )

 cart.    s( 2) = ( -1.0000000  0.0000000  0.0000000 )    f =(  0.5000000 )
                  (  0.0000000 -1.0000000  0.0000000 )       (  0.0000000 )
                  (  0.0000000  0.0000000  1.0000000 )       ( -0.5000000 )


      isym =  3     180 deg rotation - cart. axis [0,1,0]        

 cryst.   s( 3) = (    -1          0          0      )    f =(  0.0000000 )
                  (     0          1          0      )       ( -0.5000000 )
                  (     0          0         -1      )       (  0.5000000 )

 cart.    s( 3) = ( -1.0000000  0.0000000  0.0000000 )    f =(  0.0000000 )
                  (  0.0000000  1.0000000  0.0000000 )       ( -0.5000000 )
                  (  0.0000000  0.0000000 -1.0000000 )       (  0.5000000 )


      isym =  4     180 deg rotation - cart. axis [1,0,0]        

 cryst.   s( 4) = (     1          0          0      )    f =( -0.5000000 )
                  (     0         -1          0      )       (  0.5000000 )
                  (     0          0         -1      )       (  0.0000000 )

 cart.    s( 4) = (  1.0000000  0.0000000  0.0000000 )    f =( -0.5000000 )
                  (  0.0000000 -1.0000000  0.0000000 )       (  0.5000000 )
                  (  0.0000000  0.0000000 -1.0000000 )       (  0.0000000 )


      isym =  5     120 deg rotation - cart. axis [-1,-1,-1]     

 cryst.   s( 5) = (     0          0          1      )
                  (     1          0          0      )
                  (     0          1          0      )

 cart.    s( 5) = (  0.0000000  1.0000000  0.0000000 )
                  (  0.0000000  0.0000000  1.0000000 )
                  (  1.0000000  0.0000000  0.0000000 )


      isym =  6     120 deg rotation - cart. axis [-1,1,1]       

 cryst.   s( 6) = (     0          0         -1      )    f =(  0.0000000 )
                  (    -1          0          0      )       ( -0.5000000 )
                  (     0          1          0      )       (  0.5000000 )

 cart.    s( 6) = (  0.0000000 -1.0000000  0.0000000 )    f =(  0.0000000 )
                  (  0.0000000  0.0000000  1.0000000 )       ( -0.5000000 )
                  ( -1.0000000  0.0000000  0.0000000 )       (  0.5000000 )


      isym =  7     120 deg rotation - cart. axis [1,1,-1]       

 cryst.   s( 7) = (     0          0         -1      )    f =( -0.5000000 )
                  (     1          0          0      )       (  0.5000000 )
                  (     0         -1          0      )       (  0.0000000 )

 cart.    s( 7) = (  0.0000000  1.0000000  0.0000000 )    f =( -0.5000000 )
                  (  0.0000000  0.0000000 -1.0000000 )       (  0.5000000 )
                  ( -1.0000000  0.0000000  0.0000000 )       (  0.0000000 )


      isym =  8     120 deg rotation - cart. axis [1,-1,1]       

 cryst.   s( 8) = (     0          0          1      )    f =(  0.5000000 )
                  (    -1          0          0      )       (  0.0000000 )
                  (     0         -1          0      )       ( -0.5000000 )

 cart.    s( 8) = (  0.0000000 -1.0000000  0.0000000 )    f =(  0.5000000 )
                  (  0.0000000  0.0000000 -1.0000000 )       (  0.0000000 )
                  (  1.0000000  0.0000000  0.0000000 )       ( -0.5000000 )


      isym =  9     120 deg rotation - cart. axis [1,1,1]        

 cryst.   s( 9) = (     0          1          0      )
                  (     0          0          1      )
                  (     1          0          0      )

 cart.    s( 9) = (  0.0000000  0.0000000  1.0000000 )
                  (  1.0000000  0.0000000  0.0000000 )
                  (  0.0000000  1.0000000  0.0000000 )


      isym = 10     120 deg rotation - cart. axis [-1,1,-1]      

 cryst.   s(10) = (     0         -1          0      )    f =( -0.5000000 )
                  (     0          0         -1      )       (  0.5000000 )
                  (     1          0          0      )       (  0.0000000 )

 cart.    s(10) = (  0.0000000  0.0000000  1.0000000 )    f =( -0.5000000 )
                  ( -1.0000000  0.0000000  0.0000000 )       (  0.5000000 )
                  (  0.0000000 -1.0000000  0.0000000 )       (  0.0000000 )


      isym = 11     120 deg rotation - cart. axis [1,-1,-1]      

 cryst.   s(11) = (     0         -1          0      )    f =(  0.5000000 )
                  (     0          0          1      )       (  0.0000000 )
                  (    -1          0          0      )       ( -0.5000000 )

 cart.    s(11) = (  0.0000000  0.0000000 -1.0000000 )    f =(  0.5000000 )
                  ( -1.0000000  0.0000000  0.0000000 )       (  0.0000000 )
                  (  0.0000000  1.0000000  0.0000000 )       ( -0.5000000 )


      isym = 12     120 deg rotation - cart. axis [-1,-1,1]      

 cryst.   s(12) = (     0          1          0      )    f =(  0.0000000 )
                  (     0          0         -1      )       ( -0.5000000 )
                  (    -1          0          0      )       (  0.5000000 )

 cart.    s(12) = (  0.0000000  0.0000000 -1.0000000 )    f =(  0.0000000 )
                  (  1.0000000  0.0000000  0.0000000 )       ( -0.5000000 )
                  (  0.0000000 -1.0000000  0.0000000 )       (  0.5000000 )


   Cartesian axes

     site n.     atom                  positions (alat units)
         1           N   tau(   1) = (   0.2110000   0.2110000   0.2110000  )
         2           N   tau(   2) = (   0.2890000   0.7890000   0.7110000  )
         3           N   tau(   3) = (   0.7890000   0.7110000   0.2890000  )
         4           N   tau(   4) = (   0.7110000   0.2890000   0.7890000  )
         5           H   tau(   5) = (   0.3900000   0.2430000   0.1240000  )
         6           H   tau(   6) = (   0.1100000   0.7570000   0.6240000  )
         7           H   tau(   7) = (   0.6100000   0.7430000   0.3760000  )
         8           H   tau(   8) = (   0.8900000   0.2570000   0.8760000  )
         9           H   tau(   9) = (   0.1240000   0.3900000   0.2430000  )
        10           H   tau(  10) = (   0.6240000   0.1100000   0.7570000  )
        11           H   tau(  11) = (   0.3760000   0.6100000   0.7430000  )
        12           H   tau(  12) = (   0.8760000   0.8900000   0.2570000  )
        13           H   tau(  13) = (   0.2430000   0.1240000   0.3900000  )
        14           H   tau(  14) = (   0.7570000   0.6240000   0.1100000  )
        15           H   tau(  15) = (   0.7430000   0.3760000   0.6100000  )
        16           H   tau(  16) = (   0.2570000   0.8760000   0.8900000  )

   Crystallographic axes

     site n.     atom                  positions (cryst. coord.)
         1           N   tau(   1) = (  0.2110000  0.2110000  0.2110000  )
         2           N   tau(   2) = (  0.2890000  0.7890000  0.7110000  )
         3           N   tau(   3) = (  0.7890000  0.7110000  0.2890000  )
         4           N   tau(   4) = (  0.7110000  0.2890000  0.7890000  )
         5           H   tau(   5) = (  0.3900000  0.2430000  0.1240000  )
         6           H   tau(   6) = (  0.1100000  0.7570000  0.6240000  )
         7           H   tau(   7) = (  0.6100000  0.7430000  0.3760000  )
         8           H   tau(   8) = (  0.8900000  0.2570000  0.8760000  )
         9           H   tau(   9) = (  0.1240000  0.3900000  0.2430000  )
        10           H   tau(  10) = (  0.6240000  0.1100000  0.7570000  )
        11           H   tau(  11) = (  0.3760000  0.6100000  0.7430000  )
        12           H   tau(  12) = (  0.8760000  0.8900000  0.2570000  )
        13           H   tau(  13) = (  0.2430000  0.1240000  0.3900000  )
        14           H   tau(  14) = (  0.7570000  0.6240000  0.1100000  )
        15           H   tau(  15) = (  0.7430000  0.3760000  0.6100000  )
        16           H   tau(  16) = (  0.2570000  0.8760000  0.8900000  )

     number of k points=    24  Marzari-Vanderbilt smearing, width (Ry)=  0.0147
                       cart. coord. in units 2pi/alat
        k(    1) = (   0.0000000   0.0000000   0.0000000), wk =   0.0058309
        k(    2) = (   0.0000000   0.0000000   0.1428571), wk =   0.0349854
        k(    3) = (   0.0000000   0.0000000   0.2857143), wk =   0.0349854
        k(    4) = (   0.0000000   0.0000000   0.4285714), wk =   0.0349854
        k(    5) = (   0.0000000   0.1428571   0.1428571), wk =   0.0699708
        k(    6) = (   0.0000000   0.1428571   0.2857143), wk =   0.0699708
        k(    7) = (   0.0000000   0.1428571   0.4285714), wk =   0.0699708
        k(    8) = (   0.0000000   0.2857143   0.2857143), wk =   0.0699708
        k(    9) = (   0.0000000   0.2857143   0.4285714), wk =   0.0699708
        k(   10) = (   0.0000000   0.4285714   0.4285714), wk =   0.0699708
        k(   11) = (   0.1428571   0.1428571   0.1428571), wk =   0.0466472
        k(   12) = (   0.1428571   0.1428571   0.2857143), wk =   0.1399417
        k(   13) = (   0.1428571   0.1428571   0.4285714), wk =   0.1399417
        k(   14) = (   0.1428571   0.2857143   0.2857143), wk =   0.1399417
        k(   15) = (   0.1428571   0.2857143   0.4285714), wk =   0.1399417
        k(   16) = (   0.1428571   0.4285714   0.4285714), wk =   0.1399417
        k(   17) = (   0.2857143   0.2857143   0.2857143), wk =   0.0466472
        k(   18) = (   0.2857143   0.2857143   0.4285714), wk =   0.1399417
        k(   19) = (   0.2857143   0.4285714   0.4285714), wk =   0.1399417
        k(   20) = (   0.4285714   0.4285714   0.4285714), wk =   0.0466472
        k(   21) = (   0.0000000   0.2857143   0.1428571), wk =   0.0699708
        k(   22) = (   0.0000000   0.4285714   0.1428571), wk =   0.0699708
        k(   23) = (   0.0000000   0.4285714   0.2857143), wk =   0.0699708
        k(   24) = (  -0.1428571   0.4285714   0.2857143), wk =   0.1399417

                       cryst. coord.
        k(    1) = (   0.0000000   0.0000000   0.0000000), wk =   0.0058309
        k(    2) = (   0.0000000   0.0000000   0.1428571), wk =   0.0349854
        k(    3) = (   0.0000000   0.0000000   0.2857143), wk =   0.0349854
        k(    4) = (   0.0000000   0.0000000   0.4285714), wk =   0.0349854
        k(    5) = (   0.0000000   0.1428571   0.1428571), wk =   0.0699708
        k(    6) = (   0.0000000   0.1428571   0.2857143), wk =   0.0699708
        k(    7) = (   0.0000000   0.1428571   0.4285714), wk =   0.0699708
        k(    8) = (   0.0000000   0.2857143   0.2857143), wk =   0.0699708
        k(    9) = (   0.0000000   0.2857143   0.4285714), wk =   0.0699708
        k(   10) = (   0.0000000   0.4285714   0.4285714), wk =   0.0699708
        k(   11) = (   0.1428571   0.1428571   0.1428571), wk =   0.0466472
        k(   12) = (   0.1428571   0.1428571   0.2857143), wk =   0.1399417
        k(   13) = (   0.1428571   0.1428571   0.4285714), wk =   0.1399417
        k(   14) = (   0.1428571   0.2857143   0.2857143), wk =   0.1399417
        k(   15) = (   0.1428571   0.2857143   0.4285714), wk =   0.1399417
        k(   16) = (   0.1428571   0.4285714   0.4285714), wk =   0.1399417
        k(   17) = (   0.2857143   0.2857143   0.2857143), wk =   0.0466472
        k(   18) = (   0.2857143   0.2857143   0.4285714), wk =   0.1399417
        k(   19) = (   0.2857143   0.4285714   0.4285714), wk =   0.1399417
        k(   20) = (   0.4285714   0.4285714   0.4285714), wk =   0.0466472
        k(   21) = (   0.0000000   0.2857143   0.1428571), wk =   0.0699708
        k(   22) = (   0.0000000   0.4285714   0.1428571), wk =   0.0699708
        k(   23) = (   0.0000000   0.4285714   0.2857143), wk =   0.0699708
        k(   24) = (  -0.1428571   0.4285714   0.2857143), wk =   0.1399417

     Dense  grid:   167037 G-vectors     FFT dimensions: (  72,  72,  72)

     Smooth grid:    58893 G-vectors     FFT dimensions: (  50,  50,  50)

     Dynamical RAM for                 wfc:       0.28 MB

     Dynamical RAM for     wfc (w. buffer):       7.03 MB

     Dynamical RAM for           str. fact:       0.64 MB

     Dynamical RAM for           local pot:       0.00 MB

     Dynamical RAM for          nlocal pot:       0.79 MB

     Dynamical RAM for                qrad:       1.00 MB

     Dynamical RAM for          rho,v,vnew:       2.02 MB

     Dynamical RAM for               rhoin:       0.67 MB

     Dynamical RAM for            rho*nmix:       5.10 MB

     Dynamical RAM for           G-vectors:       1.25 MB

     Dynamical RAM for          h,s,v(r/c):       0.07 MB

     Dynamical RAM for          <psi|beta>:       0.02 MB

     Dynamical RAM for                 psi:       0.56 MB

     Dynamical RAM for                hpsi:       0.56 MB

     Dynamical RAM for                spsi:       0.56 MB

     Dynamical RAM for      wfcinit/wfcrot:       0.81 MB

     Dynamical RAM for           addusdens:      17.52 MB

     Dynamical RAM for          addusforce:      24.70 MB

     Dynamical RAM for         addusstress:      15.93 MB

     Estimated static dynamical RAM per process >      16.15 MB

     Estimated max dynamical RAM per process >      45.95 MB

     Estimated total dynamical RAM >     367.60 MB

     Check: negative core charge=   -0.000001

     Initial potential from superposition of free atoms

     starting charge      31.9999, renormalised to      32.0000
     Starting wfcs are   28 randomized atomic wfcs

     total cpu time spent up to now is        3.1 secs

     Self-consistent Calculation

     iteration #  1     ecut=    60.00 Ry     beta= 0.40
     Davidson diagonalization with overlap

---- Real-time Memory Report at c_bands before calling an iterative solver
            54 MiB given to the printing process from OS
             0 MiB allocation reported by mallinfo(arena+hblkhd)
         24941 MiB available memory on the node where the printing process lives
------------------
     ethr =  1.00E-02,  avg # of iterations =  3.0

     total cpu time spent up to now is        8.2 secs

     total energy              =     -95.83557845 Ry
     estimated scf accuracy    <       2.13862520 Ry

     iteration #  2     ecut=    60.00 Ry     beta= 0.40
     Davidson diagonalization with overlap

---- Real-time Memory Report at c_bands before calling an iterative solver
            62 MiB given to the printing process from OS
             0 MiB allocation reported by mallinfo(arena+hblkhd)
         24818 MiB available memory on the node where the printing process lives
------------------
     ethr =  6.68E-03,  avg # of iterations =  2.0

     total cpu time spent up to now is       11.6 secs

     total energy              =     -96.22740893 Ry
     estimated scf accuracy    <       0.11642430 Ry

     iteration #  3     ecut=    60.00 Ry     beta= 0.40
     Davidson diagonalization with overlap

---- Real-time Memory Report at c_bands before calling an iterative solver
            64 MiB given to the printing process from OS
             0 MiB allocation reported by mallinfo(arena+hblkhd)
         24806 MiB available memory on the node where the printing process lives
------------------
     ethr =  3.64E-04,  avg # of iterations =  4.0

     total cpu time spent up to now is       14.7 secs

     total energy              =     -96.21686857 Ry
     estimated scf accuracy    <       0.04181884 Ry

     iteration #  4     ecut=    60.00 Ry     beta= 0.40
     Davidson diagonalization with overlap

---- Real-time Memory Report at c_bands before calling an iterative solver
            64 MiB given to the printing process from OS
             0 MiB allocation reported by mallinfo(arena+hblkhd)
         24804 MiB available memory on the node where the printing process lives
------------------
     ethr =  1.31E-04,  avg # of iterations =  2.8

     total cpu time spent up to now is       17.7 secs

     total energy              =     -96.21995150 Ry
     estimated scf accuracy    <       0.00298881 Ry

     iteration #  5     ecut=    60.00 Ry     beta= 0.40
     Davidson diagonalization with overlap

---- Real-time Memory Report at c_bands before calling an iterative solver
            64 MiB given to the printing process from OS
             0 MiB allocation reported by mallinfo(arena+hblkhd)
         24801 MiB available memory on the node where the printing process lives
------------------
     ethr =  9.34E-06,  avg # of iterations =  4.9

     total cpu time spent up to now is       21.2 secs

     total energy              =     -96.21946886 Ry
     estimated scf accuracy    <       0.00263885 Ry

     iteration #  6     ecut=    60.00 Ry     beta= 0.40
     Davidson diagonalization with overlap

---- Real-time Memory Report at c_bands before calling an iterative solver
            65 MiB given to the printing process from OS
             0 MiB allocation reported by mallinfo(arena+hblkhd)
         24799 MiB available memory on the node where the printing process lives
------------------
     ethr =  8.25E-06,  avg # of iterations =  1.1

     total cpu time spent up to now is       24.2 secs

     total energy              =     -96.21890836 Ry
     estimated scf accuracy    <       0.00096894 Ry

     iteration #  7     ecut=    60.00 Ry     beta= 0.40
     Davidson diagonalization with overlap

---- Real-time Memory Report at c_bands before calling an iterative solver
            65 MiB given to the printing process from OS
             0 MiB allocation reported by mallinfo(arena+hblkhd)
         24796 MiB available memory on the node where the printing process lives
------------------
     ethr =  3.03E-06,  avg # of iterations =  2.1

     total cpu time spent up to now is       27.8 secs

     total energy              =     -96.21933070 Ry
     estimated scf accuracy    <       0.00087379 Ry

     iteration #  8     ecut=    60.00 Ry     beta= 0.40
     Davidson diagonalization with overlap

---- Real-time Memory Report at c_bands before calling an iterative solver
            65 MiB given to the printing process from OS
             0 MiB allocation reported by mallinfo(arena+hblkhd)
         24794 MiB available memory on the node where the printing process lives
------------------
     ethr =  2.73E-06,  avg # of iterations =  1.0

     total cpu time spent up to now is       30.4 secs

     total energy              =     -96.21929297 Ry
     estimated scf accuracy    <       0.00024157 Ry

     iteration #  9     ecut=    60.00 Ry     beta= 0.40
     Davidson diagonalization with overlap

---- Real-time Memory Report at c_bands before calling an iterative solver
            65 MiB given to the printing process from OS
             0 MiB allocation reported by mallinfo(arena+hblkhd)
         24792 MiB available memory on the node where the printing process lives
------------------
     ethr =  7.55E-07,  avg # of iterations =  1.2

     total cpu time spent up to now is       33.1 secs

     total energy              =     -96.21928813 Ry
     estimated scf accuracy    <       0.00003667 Ry

     iteration # 10     ecut=    60.00 Ry     beta= 0.40
     Davidson diagonalization with overlap

---- Real-time Memory Report at c_bands before calling an iterative solver
            66 MiB given to the printing process from OS
             0 MiB allocation reported by mallinfo(arena+hblkhd)
         24782 MiB available memory on the node where the printing process lives
------------------
     ethr =  1.15E-07,  avg # of iterations =  3.0

     total cpu time spent up to now is       37.0 secs

     total energy              =     -96.21927591 Ry
     estimated scf accuracy    <       0.00008299 Ry

     iteration # 11     ecut=    60.00 Ry     beta= 0.40
     Davidson diagonalization with overlap

---- Real-time Memory Report at c_bands before calling an iterative solver
            66 MiB given to the printing process from OS
             0 MiB allocation reported by mallinfo(arena+hblkhd)
         24783 MiB available memory on the node where the printing process lives
------------------
     ethr =  1.15E-07,  avg # of iterations =  2.0

     total cpu time spent up to now is       40.5 secs

     total energy              =     -96.21929918 Ry
     estimated scf accuracy    <       0.00003450 Ry

     iteration # 12     ecut=    60.00 Ry     beta= 0.40
     Davidson diagonalization with overlap

---- Real-time Memory Report at c_bands before calling an iterative solver
            66 MiB given to the printing process from OS
             0 MiB allocation reported by mallinfo(arena+hblkhd)
         24781 MiB available memory on the node where the printing process lives
------------------
     ethr =  1.08E-07,  avg # of iterations =  2.0

     total cpu time spent up to now is       43.9 secs

     total energy              =     -96.21930440 Ry
     estimated scf accuracy    <       0.00000016 Ry

     iteration # 13     ecut=    60.00 Ry     beta= 0.40
     Davidson diagonalization with overlap

---- Real-time Memory Report at c_bands before calling an iterative solver
            66 MiB given to the printing process from OS
             0 MiB allocation reported by mallinfo(arena+hblkhd)
         24778 MiB available memory on the node where the printing process lives
------------------
     ethr =  5.09E-10,  avg # of iterations =  2.0

     total cpu time spent up to now is       47.5 secs

     total energy              =     -96.21930447 Ry
     estimated scf accuracy    <          6.8E-09 Ry

     iteration # 14     ecut=    60.00 Ry     beta= 0.40
     Davidson diagonalization with overlap

---- Real-time Memory Report at c_bands before calling an iterative solver
            66 MiB given to the printing process from OS
             0 MiB allocation reported by mallinfo(arena+hblkhd)
         24777 MiB available memory on the node where the printing process lives
------------------
     ethr =  2.13E-11,  avg # of iterations =  2.0

     total cpu time spent up to now is       51.7 secs

     End of self-consistent calculation

          k = 0.0000 0.0000 0.0000 (  7249 PWs)   bands (ev):

   -17.1117 -16.5153 -16.5153 -16.5153  -7.5325  -7.5325  -7.5325  -6.7395
    -6.7395  -6.4952  -6.4952  -6.4952  -2.2062  -2.2062  -2.2062  -1.8043
     2.2958   5.0848   5.0848   5.0848

     occupation numbers 
     1.0000   1.0000   1.0000   1.0000   1.0000   1.0000   1.0000   1.0000
     1.0000   1.0000   1.0000   1.0000   1.0000   1.0000   1.0000   1.0000
     0.0000   0.0000   0.0000   0.0000

          k = 0.0000 0.0000 0.1429 (  7336 PWs)   bands (ev):

   -17.0857 -16.5677 -16.5128 -16.4936  -7.5505  -7.5213  -7.4541  -6.7676
    -6.7252  -6.5707  -6.5267  -6.4628  -2.2962  -2.2606  -2.1332  -1.8291
     2.5019   5.0126   5.2604   5.3330

     occupation numbers 
     1.0000   1.0000   1.0000   1.0000   1.0000   1.0000   1.0000   1.0000
     1.0000   1.0000   1.0000   1.0000   1.0000   1.0000   1.0000   1.0000
     0.0000   0.0000   0.0000   0.0000

          k = 0.0000 0.0000 0.2857 (  7372 PWs)   bands (ev):

   -17.0121 -16.6584 -16.5063 -16.4885  -7.5257  -7.4958  -7.3162  -6.8463
    -6.6841  -6.6583  -6.6077  -6.4824  -2.3845  -2.3673  -2.0789  -1.8933
     3.0504   4.9187   5.7208   5.7579

     occupation numbers 
     1.0000   1.0000   1.0000   1.0000   1.0000   1.0000   1.0000   1.0000
     1.0000   1.0000   1.0000   1.0000   1.0000   1.0000   1.0000   1.0000
     0.0000   0.0000   0.0000   0.0000

          k = 0.0000 0.0000 0.4286 (  7388 PWs)   bands (ev):

   -16.9029 -16.7773 -16.4981 -16.4912  -7.4903  -7.4781  -7.1413  -6.9721
    -6.7135  -6.6967  -6.6138  -6.5412  -2.4421  -2.4398  -2.0294  -1.9679
     3.7821   4.4912   6.1993   6.2090

     occupation numbers 
     1.0000   1.0000   1.0000   1.0000   1.0000   1.0000   1.0000   1.0000
     1.0000   1.0000   1.0000   1.0000   1.0000   1.0000   1.0000   1.0000
     0.0000   0.0000   0.0000   0.0000

          k = 0.0000 0.1429 0.1429 (  7369 PWs)   bands (ev):

   -17.0608 -16.5845 -16.5272 -16.4892  -7.5363  -7.5226  -7.4096  -6.7764
    -6.7360  -6.6013  -6.5733  -6.4409  -2.3255  -2.3131  -2.1043  -1.8512
     2.6925   5.0656   5.3668   5.5102

     occupation numbers 
     1.0000   1.0000   1.0000   1.0000   1.0000   1.0000   1.0000   1.0000
     1.0000   1.0000   1.0000   1.0000   1.0000   1.0000   1.0000   1.0000
     0.0000   0.0000   0.0000   0.0000

          k = 0.0000 0.1429 0.2857 (  7377 PWs)   bands (ev):

   -16.9901 -16.6570 -16.5269 -16.4920  -7.5163  -7.5017  -7.2986  -6.8272
    -6.7731  -6.6817  -6.5889  -6.4481  -2.3978  -2.3871  -2.0640  -1.9073
     3.2080   5.0466   5.6818   5.9586

     occupation numbers 
     1.0000   1.0000   1.0000   1.0000   1.0000   1.0000   1.0000   1.0000
     1.0000   1.0000   1.0000   1.0000   1.0000   1.0000   1.0000   1.0000
     0.0000   0.0000   0.0000   0.0000

          k = 0.0000 0.1429 0.4286 (  7375 PWs)   bands (ev):

   -16.8858 -16.7667 -16.5150 -16.5018  -7.4957  -7.4859  -7.1422  -6.9682
    -6.7861  -6.7439  -6.5523  -6.4931  -2.4467  -2.4385  -2.0237  -1.9715
     3.9134   4.6198   6.1410   6.3640

     occupation numbers 
     1.0000   1.0000   1.0000   1.0000   1.0000   1.0000   1.0000   1.0000
     1.0000   1.0000   1.0000   1.0000   1.0000   1.0000   1.0000   1.0000
     0.0000   0.0000   0.0000   0.0000

          k = 0.0000 0.2857 0.2857 (  7385 PWs)   bands (ev):

   -16.9283 -16.6717 -16.5599 -16.5076  -7.5076  -7.4873  -7.2711  -6.9237
    -6.7921  -6.6879  -6.5681  -6.4416  -2.4406  -2.4041  -2.0409  -1.9409
     3.6459   5.2683   5.7179   6.3290

     occupation numbers 
     1.0000   1.0000   1.0000   1.0000   1.0000   1.0000   1.0000   1.0000
     1.0000   1.0000   1.0000   1.0000   1.0000   1.0000   1.0000   1.0000
     0.0000   0.0000   0.0000   0.0000

          k = 0.0000 0.2857 0.4286 (  7405 PWs)   bands (ev):

   -16.8386 -16.7416 -16.5565 -16.5320  -7.4977  -7.4905  -7.1845  -7.0560
    -6.7799  -6.7310  -6.5121  -6.4630  -2.4523  -2.4351  -2.0138  -1.9802
     4.2816   4.9713   5.9498   6.4511

     occupation numbers 
     1.0000   1.0000   1.0000   1.0000   1.0000   1.0000   1.0000   1.0000
     1.0000   1.0000   1.0000   1.0000   1.0000   1.0000   1.0000   1.0000
     0.0000   0.0000   0.0000   0.0000

          k = 0.0000 0.4286 0.4286 (  7383 PWs)   bands (ev):

   -16.7757 -16.7314 -16.5897 -16.5713  -7.4868  -7.4781  -7.2315  -7.1820
    -6.6991  -6.6703  -6.5165  -6.4892  -2.4470  -2.4376  -2.0039  -1.9918
     4.8177   5.3600   5.5499   6.0157

     occupation numbers 
     1.0000   1.0000   1.0000   1.0000   1.0000   1.0000   1.0000   1.0000
     1.0000   1.0000   1.0000   1.0000   1.0000   1.0000   1.0000   1.0000
     0.0000   0.0000   0.0000   0.0000

          k = 0.1429 0.1429 0.1429 (  7373 PWs)   bands (ev):

   -17.0369 -16.5952 -16.5390 -16.4920  -7.5281  -7.5209  -7.3798  -6.7753
    -6.7428  -6.6824  -6.5602  -6.4249  -2.3564  -2.3395  -2.0838  -1.8707
     2.8681   5.1171   5.5155   5.6294

     occupation numbers 
     1.0000   1.0000   1.0000   1.0000   1.0000   1.0000   1.0000   1.0000
     1.0000   1.0000   1.0000   1.0000   1.0000   1.0000   1.0000   1.0000
     0.0000   0.0000   0.0000   0.0000

          k = 0.1429 0.1429 0.2857 (  7389 PWs)   bands (ev):

   -16.9691 -16.6553 -16.5413 -16.5002  -7.5251  -7.4946  -7.3043  -6.8546
    -6.7789  -6.7060  -6.5624  -6.4290  -2.4201  -2.3814  -2.0525  -1.9194
     3.3495   5.1264   5.7906   6.0440

     occupation numbers 
     1.0000   1.0000   1.0000   1.0000   1.0000   1.0000   1.0000   1.0000
     1.0000   1.0000   1.0000   1.0000   1.0000   1.0000   1.0000   1.0000
     0.0000   0.0000   0.0000   0.0000

          k = 0.1429 0.1429 0.4286 (  7383 PWs)   bands (ev):

   -16.8696 -16.7569 -16.5286 -16.5132  -7.5081  -7.4894  -7.1847  -7.0251
    -6.7592  -6.7112  -6.5358  -6.4741  -2.4470  -2.4269  -2.0198  -1.9749
     4.0223   4.7126   6.1974   6.4768

     occupation numbers 
     1.0000   1.0000   1.0000   1.0000   1.0000   1.0000   1.0000   1.0000
     1.0000   1.0000   1.0000   1.0000   1.0000   1.0000   1.0000   1.0000
     0.0000   0.0000   0.0000   0.0000

          k = 0.1429 0.2857 0.2857 (  7400 PWs)   bands (ev):

   -16.9102 -16.6680 -16.5691 -16.5187  -7.5293  -7.4954  -7.3014  -6.9822
    -6.7654  -6.6775  -6.5336  -6.4132  -2.4407  -2.3895  -2.0319  -1.9496
     3.7508   5.3037   5.8166   6.3525

     occupation numbers 
     1.0000   1.0000   1.0000   1.0000   1.0000   1.0000   1.0000   1.0000
     1.0000   1.0000   1.0000   1.0000   1.0000   1.0000   1.0000   1.0000
     0.0000   0.0000   0.0000   0.0000

          k = 0.1429 0.2857 0.4286 (  7389 PWs)   bands (ev):

   -16.8250 -16.7333 -16.5654 -16.5425  -7.5241  -7.5087  -7.2483  -7.1322
    -6.7202  -6.6754  -6.4880  -6.4358  -2.4355  -2.4117  -2.0112  -1.9840
     4.3453   5.0068   5.9529   6.4041

     occupation numbers 
     1.0000   1.0000   1.0000   1.0000   1.0000   1.0000   1.0000   1.0000
     1.0000   1.0000   1.0000   1.0000   1.0000   1.0000   1.0000   1.0000
     0.0000   0.0000   0.0000   0.0000

          k = 0.1429 0.4286 0.4286 (  7388 PWs)   bands (ev):

   -16.7656 -16.7237 -16.5962 -16.5790  -7.5202  -7.5097  -7.3027  -7.2561
    -6.6374  -6.6087  -6.4827  -6.4525  -2.4157  -2.4041  -2.0052  -1.9958
     4.8293   5.3380   5.5105   5.9144

     occupation numbers 
     1.0000   1.0000   1.0000   1.0000   1.0000   1.0000   1.0000   1.0000
     1.0000   1.0000   1.0000   1.0000   1.0000   1.0000   1.0000   1.0000
     0.0000   0.0000   0.0000   0.0000

          k = 0.2857 0.2857 0.2857 (  7388 PWs)   bands (ev):

   -16.8597 -16.6688 -16.5915 -16.5430  -7.5531  -7.5253  -7.3564  -7.1293
    -6.6945  -6.6078  -6.4933  -6.3802  -2.4239  -2.3648  -2.0185  -1.9725
     4.0590   5.3845   5.9770   6.0349

     occupation numbers 
     1.0000   1.0000   1.0000   1.0000   1.0000   1.0000   1.0000   1.0000
     1.0000   1.0000   1.0000   1.0000   1.0000   1.0000   1.0000   1.0000
     0.0000   0.0000   0.0000   0.0000

          k = 0.2857 0.2857 0.4286 (  7374 PWs)   bands (ev):

   -16.7878 -16.7130 -16.5910 -16.5689  -7.5614  -7.5492  -7.3628  -7.2762
    -6.6149  -6.5661  -6.4496  -6.3935  -2.3871  -2.3594  -2.0112  -1.9975
     4.5428   5.1197   5.8218   5.9919

     occupation numbers 
     1.0000   1.0000   1.0000   1.0000   1.0000   1.0000   1.0000   1.0000
     1.0000   1.0000   1.0000   1.0000   1.0000   1.0000   1.0000   1.0000
     0.0000   0.0000   0.0000   0.0000

          k = 0.2857 0.4286 0.4286 (  7387 PWs)   bands (ev):

   -16.7381 -16.7032 -16.6150 -16.5999  -7.5765  -7.5700  -7.4342  -7.3976
    -6.5251  -6.4919  -6.4235  -6.3882  -2.3322  -2.3186  -2.0190  -2.0160
     4.8821   5.2852   5.4009   5.6208

     occupation numbers 
     1.0000   1.0000   1.0000   1.0000   1.0000   1.0000   1.0000   1.0000
     1.0000   1.0000   1.0000   1.0000   1.0000   1.0000   1.0000   1.0000
     0.0000   0.0000   0.0000   0.0000

          k = 0.4286 0.4286 0.4286 (  7409 PWs)   bands (ev):

   -16.7017 -16.6821 -16.6387 -16.6272  -7.6024  -7.5993  -7.5297  -7.5119
    -6.4356  -6.4035  -6.3937  -6.3610  -2.2362  -2.2278  -2.0575  -2.0555
     5.0198   5.2383   5.2881   5.2935

     occupation numbers 
     1.0000   1.0000   1.0000   1.0000   1.0000   1.0000   1.0000   1.0000
     1.0000   1.0000   1.0000   1.0000   1.0000   1.0000   1.0000   1.0000
     0.0000   0.0000   0.0000   0.0000

          k = 0.0000 0.2857 0.1429 (  7377 PWs)   bands (ev):

   -16.9901 -16.6570 -16.5269 -16.4920  -7.5202  -7.4913  -7.3086  -6.8597
    -6.7231  -6.6721  -6.6034  -6.4574  -2.4058  -2.3775  -2.0658  -1.9070
     3.2073   5.0259   5.7526   5.9206

     occupation numbers 
     1.0000   1.0000   1.0000   1.0000   1.0000   1.0000   1.0000   1.0000
     1.0000   1.0000   1.0000   1.0000   1.0000   1.0000   1.0000   1.0000
     0.0000   0.0000   0.0000   0.0000

          k = 0.0000 0.4286 0.1429 (  7375 PWs)   bands (ev):

   -16.8858 -16.7667 -16.5150 -16.5018  -7.4939  -7.4755  -7.1688  -7.0053
    -6.7319  -6.6776  -6.5964  -6.5185  -2.4495  -2.4334  -2.0254  -1.9717
     3.9089   4.6055   6.2332   6.3560

     occupation numbers 
     1.0000   1.0000   1.0000   1.0000   1.0000   1.0000   1.0000   1.0000
     1.0000   1.0000   1.0000   1.0000   1.0000   1.0000   1.0000   1.0000
     0.0000   0.0000   0.0000   0.0000

          k = 0.0000 0.4286 0.2857 (  7405 PWs)   bands (ev):

   -16.8386 -16.7416 -16.5565 -16.5320  -7.4940  -7.4748  -7.2175  -7.0908
    -6.7281  -6.6631  -6.5574  -6.4896  -2.4524  -2.4319  -2.0158  -1.9807
     4.2705   4.9270   6.1028   6.5531

     occupation numbers 
     1.0000   1.0000   1.0000   1.0000   1.0000   1.0000   1.0000   1.0000
     1.0000   1.0000   1.0000   1.0000   1.0000   1.0000   1.0000   1.0000
     0.0000   0.0000   0.0000   0.0000

          k =-0.1429 0.4286 0.2857 (  7389 PWs)   bands (ev):

   -16.8250 -16.7333 -16.5654 -16.5425  -7.5215  -7.5011  -7.2629  -7.1454
    -6.6990  -6.6456  -6.5092  -6.4483  -2.4353  -2.4102  -2.0124  -1.9842
     4.3383   4.9780   6.0545   6.4627

     occupation numbers 
     1.0000   1.0000   1.0000   1.0000   1.0000   1.0000   1.0000   1.0000
     1.0000   1.0000   1.0000   1.0000   1.0000   1.0000   1.0000   1.0000
     0.0000   0.0000   0.0000   0.0000

     the Fermi energy is    -0.0922 ev

!    total energy              =     -96.21930448 Ry
     estimated scf accuracy    <          8.2E-10 Ry
     smearing contrib. (-TS)   =       0.00000000 Ry
     internal energy E=F+TS    =     -96.21930448 Ry

     The total energy is F=E-TS. E is the sum of the following terms:
     one-electron contribution =     -59.36100312 Ry
     hartree contribution      =      38.95062705 Ry
     xc contribution           =     -31.46552781 Ry
     ewald contribution        =     -44.34340060 Ry

     convergence has been achieved in  14 iterations

     Forces acting on atoms (cartesian axes, Ry/au):

     atom    1 type  2   force =     0.01167264    0.01167264    0.01167264
     atom    2 type  2   force =    -0.01167264   -0.01167264    0.01167264
     atom    3 type  2   force =    -0.01167264    0.01167264   -0.01167264
     atom    4 type  2   force =     0.01167264   -0.01167264   -0.01167264
     atom    5 type  1   force =    -0.02586634    0.00036795    0.01453714
     atom    6 type  1   force =     0.02586634   -0.00036795    0.01453714
     atom    7 type  1   force =     0.02586634    0.00036795   -0.01453714
     atom    8 type  1   force =    -0.02586634   -0.00036795   -0.01453714
     atom    9 type  1   force =     0.01453714   -0.02586634    0.00036795
     atom   10 type  1   force =     0.01453714    0.02586634   -0.00036795
     atom   11 type  1   force =    -0.01453714    0.02586634    0.00036795
     atom   12 type  1   force =    -0.01453714   -0.02586634   -0.00036795
     atom   13 type  1   force =     0.00036795    0.01453714   -0.02586634
     atom   14 type  1   force =    -0.00036795    0.01453714    0.02586634
     atom   15 type  1   force =     0.00036795   -0.01453714    0.02586634
     atom   16 type  1   force =    -0.00036795   -0.01453714   -0.02586634
     The non-local contrib.  to forces
     atom    1 type  2   force =     0.69821136    0.69821136    0.69821136
     atom    2 type  2   force =    -0.69821136   -0.69821136    0.69821136
     atom    3 type  2   force =    -0.69821136    0.69821136   -0.69821136
     atom    4 type  2   force =     0.69821136   -0.69821136   -0.69821136
     atom    5 type  1   force =    -0.07758582   -0.01305482    0.04029914
     atom    6 type  1   force =     0.07758582    0.01305482    0.04029914
     atom    7 type  1   force =     0.07758582   -0.01305482   -0.04029914
     atom    8 type  1   force =    -0.07758582    0.01305482   -0.04029914
     atom    9 type  1   force =     0.04029914   -0.07758582   -0.01305482
     atom   10 type  1   force =     0.04029914    0.07758582    0.01305482
     atom   11 type  1   force =    -0.04029914    0.07758582   -0.01305482
     atom   12 type  1   force =    -0.04029914   -0.07758582    0.01305482
     atom   13 type  1   force =    -0.01305482    0.04029914   -0.07758582
     atom   14 type  1   force =     0.01305482    0.04029914    0.07758582
     atom   15 type  1   force =    -0.01305482   -0.04029914    0.07758582
     atom   16 type  1   force =     0.01305482   -0.04029914   -0.07758582
     The ionic contribution  to forces
     atom    1 type  2   force =    -1.07294925   -1.07294925   -1.07294925
     atom    2 type  2   force =     1.07294925    1.07294925   -1.07294925
     atom    3 type  2   force =     1.07294925   -1.07294925    1.07294925
     atom    4 type  2   force =    -1.07294925    1.07294925    1.07294925
     atom    5 type  1   force =     2.08551745    0.37864597   -0.93862910
     atom    6 type  1   force =    -2.08551745   -0.37864597   -0.93862910
     atom    7 type  1   force =    -2.08551745    0.37864597    0.93862910
     atom    8 type  1   force =     2.08551745   -0.37864597    0.93862910
     atom    9 type  1   force =    -0.93862910    2.08551745    0.37864597
     atom   10 type  1   force =    -0.93862910   -2.08551745   -0.37864597
     atom   11 type  1   force =     0.93862910   -2.08551745    0.37864597
     atom   12 type  1   force =     0.93862910    2.08551745   -0.37864597
     atom   13 type  1   force =     0.37864597   -0.93862910    2.08551745
     atom   14 type  1   force =    -0.37864597   -0.93862910   -2.08551745
     atom   15 type  1   force =     0.37864597    0.93862910   -2.08551745
     atom   16 type  1   force =    -0.37864597    0.93862910    2.08551745
     The local contribution  to forces
     atom    1 type  2   force =     0.39648925    0.39648925    0.39648925
     atom    2 type  2   force =    -0.39648925   -0.39648925    0.39648925
     atom    3 type  2   force =    -0.39648925    0.39648925   -0.39648925
     atom    4 type  2   force =     0.39648925   -0.39648925   -0.39648925
     atom    5 type  1   force =    -2.03379518   -0.36522340    0.91286416
     atom    6 type  1   force =     2.03379518    0.36522340    0.91286416
     atom    7 type  1   force =     2.03379518   -0.36522340   -0.91286416
     atom    8 type  1   force =    -2.03379518    0.36522340   -0.91286416
     atom    9 type  1   force =     0.91286416   -2.03379518   -0.36522340
     atom   10 type  1   force =     0.91286416    2.03379518    0.36522340
     atom   11 type  1   force =    -0.91286416    2.03379518   -0.36522340
     atom   12 type  1   force =    -0.91286416   -2.03379518    0.36522340
     atom   13 type  1   force =    -0.36522340    0.91286416   -2.03379518
     atom   14 type  1   force =     0.36522340    0.91286416    2.03379518
     atom   15 type  1   force =    -0.36522340   -0.91286416    2.03379518
     atom   16 type  1   force =     0.36522340   -0.91286416   -2.03379518
     The core correction contribution to forces
     atom    1 type  2   force =    -0.01009041   -0.01009041   -0.01009041
     atom    2 type  2   force =     0.01009041    0.01009041   -0.01009041
     atom    3 type  2   force =     0.01009041   -0.01009041    0.01009041
     atom    4 type  2   force =    -0.01009041    0.01009041    0.01009041
     atom    5 type  1   force =     0.00000000    0.00000000    0.00000000
     atom    6 type  1   force =     0.00000000    0.00000000    0.00000000
     atom    7 type  1   force =     0.00000000    0.00000000    0.00000000
     atom    8 type  1   force =     0.00000000    0.00000000    0.00000000
     atom    9 type  1   force =     0.00000000    0.00000000    0.00000000
     atom   10 type  1   force =     0.00000000    0.00000000    0.00000000
     atom   11 type  1   force =     0.00000000    0.00000000    0.00000000
     atom   12 type  1   force =     0.00000000    0.00000000    0.00000000
     atom   13 type  1   force =     0.00000000    0.00000000    0.00000000
     atom   14 type  1   force =     0.00000000    0.00000000    0.00000000
     atom   15 type  1   force =     0.00000000    0.00000000    0.00000000
     atom   16 type  1   force =     0.00000000    0.00000000    0.00000000
     The Hubbard contrib.    to forces
     atom    1 type  2   force =     0.00000000    0.00000000    0.00000000
     atom    2 type  2   force =     0.00000000    0.00000000    0.00000000
     atom    3 type  2   force =     0.00000000    0.00000000    0.00000000
     atom    4 type  2   force =     0.00000000    0.00000000    0.00000000
     atom    5 type  1   force =     0.00000000    0.00000000    0.00000000
     atom    6 type  1   force =     0.00000000    0.00000000    0.00000000
     atom    7 type  1   force =     0.00000000    0.00000000    0.00000000
     atom    8 type  1   force =     0.00000000    0.00000000    0.00000000
     atom    9 type  1   force =     0.00000000    0.00000000    0.00000000
     atom   10 type  1   force =     0.00000000    0.00000000    0.00000000
     atom   11 type  1   force =     0.00000000    0.00000000    0.00000000
     atom   12 type  1   force =     0.00000000    0.00000000    0.00000000
     atom   13 type  1   force =     0.00000000    0.00000000    0.00000000
     atom   14 type  1   force =     0.00000000    0.00000000    0.00000000
     atom   15 type  1   force =     0.00000000    0.00000000    0.00000000
     atom   16 type  1   force =     0.00000000    0.00000000    0.00000000
     The SCF correction term to forces
     atom    1 type  2   force =     0.00001170    0.00001170    0.00001170
     atom    2 type  2   force =    -0.00001170   -0.00001170    0.00001170
     atom    3 type  2   force =    -0.00001170    0.00001170   -0.00001170
     atom    4 type  2   force =     0.00001170   -0.00001170   -0.00001170
     atom    5 type  1   force =    -0.00000279    0.00000020    0.00000294
     atom    6 type  1   force =     0.00000279   -0.00000020    0.00000294
     atom    7 type  1   force =     0.00000279    0.00000020   -0.00000294
     atom    8 type  1   force =    -0.00000279   -0.00000020   -0.00000294
     atom    9 type  1   force =     0.00000294   -0.00000279    0.00000020
     atom   10 type  1   force =     0.00000294    0.00000279   -0.00000020
     atom   11 type  1   force =    -0.00000294    0.00000279    0.00000020
     atom   12 type  1   force =    -0.00000294   -0.00000279   -0.00000020
     atom   13 type  1   force =     0.00000020    0.00000294   -0.00000279
     atom   14 type  1   force =    -0.00000020    0.00000294    0.00000279
     atom   15 type  1   force =     0.00000020   -0.00000294    0.00000279
     atom   16 type  1   force =    -0.00000020   -0.00000294   -0.00000279

     Total force =     0.110460     Total SCF correction =     0.000043


     Computing stress (Cartesian axis) and pressure

          total   stress  (Ry/bohr**3)                   (kbar)     P=      -37.92
  -0.00025778   0.00000000   0.00000000          -37.92        0.00        0.00
   0.00000000  -0.00025778   0.00000000            0.00      -37.92        0.00
   0.00000000   0.00000000  -0.00025778            0.00        0.00      -37.92

     kinetic stress (kbar)   6290.06      0.00      0.00
                                0.00   6290.06      0.00
                                0.00      0.00   6290.06

     local   stress (kbar)  -4525.84     -0.00     -0.00
                               -0.00  -4525.84     -0.00
                               -0.00     -0.00  -4525.84

     nonloc. stress (kbar)    -16.51      0.00      0.00
                                0.00    -16.51      0.00
                                0.00      0.00    -16.51

     hartree stress (kbar)   2030.38      0.00      0.00
                                0.00   2030.38      0.00
                                0.00      0.00   2030.38

     exc-cor stress (kbar)  -1076.71     -0.00      0.00
                               -0.00  -1076.71      0.00
                                0.00      0.00  -1076.71

     corecor stress (kbar)   -427.82      0.00     -0.00
                                0.00   -427.82      0.00
                               -0.00      0.00   -427.82

     ewald   stress (kbar)  -2311.49     -0.00     -0.00
                               -0.00  -2311.49      0.00
                               -0.00      0.00  -2311.49

     hubbard stress (kbar)      0.00      0.00      0.00
                                0.00      0.00      0.00
                                0.00      0.00      0.00

     DFT-D   stress (kbar)      0.00      0.00      0.00
                                0.00      0.00      0.00
                                0.00      0.00      0.00

     XDM     stress (kbar)      0.00      0.00      0.00
                                0.00      0.00      0.00
                                0.00      0.00      0.00

     dft-nl  stress (kbar)      0.00      0.00      0.00
                                0.00      0.00      0.00
                                0.00      0.00      0.00

     TS-vdW  stress (kbar)      0.00      0.00      0.00
                                0.00      0.00      0.00
                                0.00      0.00      0.00

     MDB     stress (kbar)      0.00      0.00      0.00
                                0.00      0.00      0.00
                                0.00      0.00      0.00

     3D-RISM stress (kbar)      0.00      0.00      0.00
                                0.00      0.00      0.00
                                0.00      0.00      0.00


     Writing all to output data dir ./out/AC_Ph_1.save/

     init_run     :      2.82s CPU      2.93s WALL (       1 calls)
     electrons    :     46.69s CPU     48.68s WALL (       1 calls)
     forces       :      1.30s CPU      1.30s WALL (       1 calls)
     stress       :      1.20s CPU      1.21s WALL (       1 calls)

     Called by init_run:
     wfcinit      :      1.87s CPU      1.94s WALL (       1 calls)
     wfcinit:atom :      0.02s CPU      0.02s WALL (      24 calls)
     wfcinit:wfcr :      1.79s CPU      1.86s WALL (      24 calls)
     potinit      :      0.24s CPU      0.26s WALL (       1 calls)
     hinit0       :      0.55s CPU      0.56s WALL (       1 calls)

     Called by electrons:
     c_bands      :     38.63s CPU     40.23s WALL (      14 calls)
     sum_band     :      6.37s CPU      6.72s WALL (      14 calls)
     v_of_rho     :      0.87s CPU      0.90s WALL (      15 calls)
     v_h          :      0.05s CPU      0.05s WALL (      15 calls)
     v_xc         :      0.96s CPU      0.99s WALL (      17 calls)
     newd         :      0.73s CPU      0.76s WALL (      15 calls)
     mix_rho      :      0.13s CPU      0.13s WALL (      14 calls)

     Called by c_bands:
     init_us_2    :      0.45s CPU      0.46s WALL (     744 calls)
     init_us_2:cp :      0.45s CPU      0.45s WALL (     744 calls)
     cegterg      :     37.85s CPU     39.43s WALL (     336 calls)

     Called by sum_band:
     sum_band:wei :      0.00s CPU      0.00s WALL (      14 calls)
     sum_band:loo :      5.53s CPU      5.86s WALL (      14 calls)
     sum_band:buf :      0.05s CPU      0.05s WALL (     336 calls)
     sum_band:ini :      0.20s CPU      0.20s WALL (     336 calls)
     sum_band:cal :      1.70s CPU      1.78s WALL (     336 calls)
     sum_band:bec :      0.01s CPU      0.01s WALL (     336 calls)
     addusdens    :      0.70s CPU      0.71s WALL (      14 calls)
     addusd:skk   :      0.04s CPU      0.04s WALL (      28 calls)
     addusd:dgemm :      0.35s CPU      0.35s WALL (      28 calls)
     addusd:qvan2 :      0.22s CPU      0.22s WALL (      28 calls)

     Called by *egterg:
     cdiaghg      :      0.98s CPU      0.99s WALL (    1134 calls)
     cegterg:over :      4.10s CPU      4.13s WALL (     798 calls)
     cegterg:upda :      1.09s CPU      1.09s WALL (     798 calls)
     cegterg:last :      2.45s CPU      2.47s WALL (     648 calls)
     h_psi        :     25.59s CPU     27.15s WALL (    1158 calls)
     s_psi        :      2.44s CPU      2.45s WALL (    1158 calls)
     g_psi        :      0.17s CPU      0.17s WALL (     798 calls)

     Called by h_psi:
     h_psi:calbec :      4.60s CPU      4.77s WALL (    1158 calls)
     vloc_psi     :     18.40s CPU     19.77s WALL (    1158 calls)
     add_vuspsi   :      2.47s CPU      2.48s WALL (    1158 calls)

     General routines
     calbec       :      7.27s CPU      7.52s WALL (    1614 calls)
     fft          :      0.87s CPU      0.91s WALL (     218 calls)
     ffts         :      0.12s CPU      0.12s WALL (      29 calls)
     fftw         :     19.83s CPU     21.31s WALL (   42442 calls)
     interpolate  :      0.15s CPU      0.16s WALL (      15 calls)

     Parallel routines

     PWSCF        :     52.21s CPU     54.48s WALL


   This run was terminated on:   1:20:19  14Dec2022            

=------------------------------------------------------------------------------=
   JOB DONE.
=------------------------------------------------------------------------------=
