
     Program PWSCF v.7.1 starts on 14Dec2022 at  5:23: 9 

     This program is part of the open-source Quantum ESPRESSO suite
     for quantum simulation of materials; please cite
         "P. Giannozzi et al., J. Phys.:Condens. Matter 21 395502 (2009);
         "P. Giannozzi et al., J. Phys.:Condens. Matter 29 465901 (2017);
         "P. Giannozzi et al., J. Chem. Phys. 152 154105 (2020);
          URL http://www.quantum-espresso.org", 
     in publications or presentations arising from this work. More details at
     http://www.quantum-espresso.org/quote

     Parallel version (MPI), running on    14 processors

     MPI processes distributed on     1 nodes
     23873 MiB available memory on the printing compute node when the environment starts

     Reading input from pwrelax.in

     Current dimensions of program PWSCF are:
     Max number of different atomic species (ntypx) = 10
     Max number of k-points (npk) =  40000
     Max angular momentum in pseudopotentials (lmaxx) =  4
     Message from routine setup:
     using ibrav=0 with symmetry is DISCOURAGED, use correct ibrav instead

     R & G space division:  proc/nbgrp/npool/nimage =      14
     Subspace diagonalization in iterative solution of the eigenvalue problem:
     a serial algorithm will be used


     Parallelization info
     --------------------
     sticks:   dense  smooth     PW     G-vecs:    dense   smooth      PW
     Min         262     130     36                11930     4206     630
     Max         263     131     38                11933     4207     633
     Sum        3673    1829    517               167037    58893    8829

     Using Slab Decomposition



     bravais-lattice index     =            0
     lattice parameter (alat)  =       9.7982  a.u.
     unit-cell volume          =     940.6821 (a.u.)^3
     number of atoms/cell      =           16
     number of atomic types    =            2
     number of electrons       =        32.00
     number of Kohn-Sham states=           20
     kinetic-energy cutoff     =      60.0000  Ry
     charge density cutoff     =     480.0000  Ry
     scf convergence threshold =      3.2E-09
     mixing beta               =       0.4000
     number of iterations used =            8  plain     mixing
     energy convergence thresh.=      1.6E-04
     force convergence thresh. =      1.0E-04
     Exchange-correlation= PBE
                           (   1   4   3   4   0   0   0)
     nstep                     =           50


     celldm(1)=   9.798230  celldm(2)=   0.000000  celldm(3)=   0.000000
     celldm(4)=   0.000000  celldm(5)=   0.000000  celldm(6)=   0.000000

     crystal axes: (cart. coord. in units of alat)
               a(1) = (   1.000000   0.000000   0.000000 )  
               a(2) = (   0.000000   1.000000   0.000000 )  
               a(3) = (   0.000000   0.000000   1.000000 )  

     reciprocal axes: (cart. coord. in units 2 pi/alat)
               b(1) = (  1.000000  0.000000  0.000000 )  
               b(2) = (  0.000000  1.000000  0.000000 )  
               b(3) = (  0.000000  0.000000  1.000000 )  


     PseudoPot. # 1 for H  read from file:
     ./pseudo/H.pbe-rrkjus_psl.1.0.0.UPF
     MD5 check sum: 3f4114867bd07edc7f1424d066fc1888
     Pseudo is Ultrasoft, Zval =  1.0
     Generated using &quot;atomic&quot; code by A. Dal Corso  v.6.3MaX
     Using radial grid of  929 points,  2 beta functions with: 
                l(1) =   0
                l(2) =   0
     Q(r) pseudized with 0 coefficients 


     PseudoPot. # 2 for N  read from file:
     ./pseudo/N.pbe-n-rrkjus_psl.1.0.0.UPF
     MD5 check sum: ada94e3ed05223de5319d0572dc76806
     Pseudo is Ultrasoft + core correction, Zval =  5.0
     Generated using &quot;atomic&quot; code by A. Dal Corso  v.6.3MaX
     Using radial grid of 1085 points,  4 beta functions with: 
                l(1) =   0
                l(2) =   0
                l(3) =   1
                l(4) =   1
     Q(r) pseudized with 0 coefficients 


     atomic species   valence    mass     pseudopotential
        H              1.00     1.00794     H ( 1.00)
        N              5.00    14.00670     N ( 1.00)

     12 Sym. Ops. (no inversion) found ( 9 have fractional translation)


                                    s                        frac. trans.

      isym =  1     identity                                     

 cryst.   s( 1) = (     1          0          0      )
                  (     0          1          0      )
                  (     0          0          1      )

 cart.    s( 1) = (  1.0000000  0.0000000  0.0000000 )
                  (  0.0000000  1.0000000  0.0000000 )
                  (  0.0000000  0.0000000  1.0000000 )


      isym =  2     180 deg rotation - cart. axis [0,0,1]        

 cryst.   s( 2) = (    -1          0          0      )    f =(  0.5000000 )
                  (     0         -1          0      )       (  0.0000000 )
                  (     0          0          1      )       ( -0.5000000 )

 cart.    s( 2) = ( -1.0000000  0.0000000  0.0000000 )    f =(  0.5000000 )
                  (  0.0000000 -1.0000000  0.0000000 )       (  0.0000000 )
                  (  0.0000000  0.0000000  1.0000000 )       ( -0.5000000 )


      isym =  3     180 deg rotation - cart. axis [0,1,0]        

 cryst.   s( 3) = (    -1          0          0      )    f =(  0.0000000 )
                  (     0          1          0      )       ( -0.5000000 )
                  (     0          0         -1      )       (  0.5000000 )

 cart.    s( 3) = ( -1.0000000  0.0000000  0.0000000 )    f =(  0.0000000 )
                  (  0.0000000  1.0000000  0.0000000 )       ( -0.5000000 )
                  (  0.0000000  0.0000000 -1.0000000 )       (  0.5000000 )


      isym =  4     180 deg rotation - cart. axis [1,0,0]        

 cryst.   s( 4) = (     1          0          0      )    f =( -0.5000000 )
                  (     0         -1          0      )       (  0.5000000 )
                  (     0          0         -1      )       (  0.0000000 )

 cart.    s( 4) = (  1.0000000  0.0000000  0.0000000 )    f =( -0.5000000 )
                  (  0.0000000 -1.0000000  0.0000000 )       (  0.5000000 )
                  (  0.0000000  0.0000000 -1.0000000 )       (  0.0000000 )


      isym =  5     120 deg rotation - cart. axis [-1,-1,-1]     

 cryst.   s( 5) = (     0          0          1      )
                  (     1          0          0      )
                  (     0          1          0      )

 cart.    s( 5) = (  0.0000000  1.0000000  0.0000000 )
                  (  0.0000000  0.0000000  1.0000000 )
                  (  1.0000000  0.0000000  0.0000000 )


      isym =  6     120 deg rotation - cart. axis [-1,1,1]       

 cryst.   s( 6) = (     0          0         -1      )    f =(  0.0000000 )
                  (    -1          0          0      )       ( -0.5000000 )
                  (     0          1          0      )       (  0.5000000 )

 cart.    s( 6) = (  0.0000000 -1.0000000  0.0000000 )    f =(  0.0000000 )
                  (  0.0000000  0.0000000  1.0000000 )       ( -0.5000000 )
                  ( -1.0000000  0.0000000  0.0000000 )       (  0.5000000 )


      isym =  7     120 deg rotation - cart. axis [1,1,-1]       

 cryst.   s( 7) = (     0          0         -1      )    f =( -0.5000000 )
                  (     1          0          0      )       (  0.5000000 )
                  (     0         -1          0      )       (  0.0000000 )

 cart.    s( 7) = (  0.0000000  1.0000000  0.0000000 )    f =( -0.5000000 )
                  (  0.0000000  0.0000000 -1.0000000 )       (  0.5000000 )
                  ( -1.0000000  0.0000000  0.0000000 )       (  0.0000000 )


      isym =  8     120 deg rotation - cart. axis [1,-1,1]       

 cryst.   s( 8) = (     0          0          1      )    f =(  0.5000000 )
                  (    -1          0          0      )       (  0.0000000 )
                  (     0         -1          0      )       ( -0.5000000 )

 cart.    s( 8) = (  0.0000000 -1.0000000  0.0000000 )    f =(  0.5000000 )
                  (  0.0000000  0.0000000 -1.0000000 )       (  0.0000000 )
                  (  1.0000000  0.0000000  0.0000000 )       ( -0.5000000 )


      isym =  9     120 deg rotation - cart. axis [1,1,1]        

 cryst.   s( 9) = (     0          1          0      )
                  (     0          0          1      )
                  (     1          0          0      )

 cart.    s( 9) = (  0.0000000  0.0000000  1.0000000 )
                  (  1.0000000  0.0000000  0.0000000 )
                  (  0.0000000  1.0000000  0.0000000 )


      isym = 10     120 deg rotation - cart. axis [-1,1,-1]      

 cryst.   s(10) = (     0         -1          0      )    f =( -0.5000000 )
                  (     0          0         -1      )       (  0.5000000 )
                  (     1          0          0      )       (  0.0000000 )

 cart.    s(10) = (  0.0000000  0.0000000  1.0000000 )    f =( -0.5000000 )
                  ( -1.0000000  0.0000000  0.0000000 )       (  0.5000000 )
                  (  0.0000000 -1.0000000  0.0000000 )       (  0.0000000 )


      isym = 11     120 deg rotation - cart. axis [1,-1,-1]      

 cryst.   s(11) = (     0         -1          0      )    f =(  0.5000000 )
                  (     0          0          1      )       (  0.0000000 )
                  (    -1          0          0      )       ( -0.5000000 )

 cart.    s(11) = (  0.0000000  0.0000000 -1.0000000 )    f =(  0.5000000 )
                  ( -1.0000000  0.0000000  0.0000000 )       (  0.0000000 )
                  (  0.0000000  1.0000000  0.0000000 )       ( -0.5000000 )


      isym = 12     120 deg rotation - cart. axis [-1,-1,1]      

 cryst.   s(12) = (     0          1          0      )    f =(  0.0000000 )
                  (     0          0         -1      )       ( -0.5000000 )
                  (    -1          0          0      )       (  0.5000000 )

 cart.    s(12) = (  0.0000000  0.0000000 -1.0000000 )    f =(  0.0000000 )
                  (  1.0000000  0.0000000  0.0000000 )       ( -0.5000000 )
                  (  0.0000000 -1.0000000  0.0000000 )       (  0.5000000 )


   Cartesian axes

     site n.     atom                  positions (alat units)
         1           N   tau(   1) = (   0.2110000   0.2110000   0.2110000  )
         2           N   tau(   2) = (   0.2890000   0.7890000   0.7110000  )
         3           N   tau(   3) = (   0.7890000   0.7110000   0.2890000  )
         4           N   tau(   4) = (   0.7110000   0.2890000   0.7890000  )
         5           H   tau(   5) = (   0.3900000   0.2430000   0.1240000  )
         6           H   tau(   6) = (   0.1100000   0.7570000   0.6240000  )
         7           H   tau(   7) = (   0.6100000   0.7430000   0.3760000  )
         8           H   tau(   8) = (   0.8900000   0.2570000   0.8760000  )
         9           H   tau(   9) = (   0.1240000   0.3900000   0.2430000  )
        10           H   tau(  10) = (   0.6240000   0.1100000   0.7570000  )
        11           H   tau(  11) = (   0.3760000   0.6100000   0.7430000  )
        12           H   tau(  12) = (   0.8760000   0.8900000   0.2570000  )
        13           H   tau(  13) = (   0.2430000   0.1240000   0.3900000  )
        14           H   tau(  14) = (   0.7570000   0.6240000   0.1100000  )
        15           H   tau(  15) = (   0.7430000   0.3760000   0.6100000  )
        16           H   tau(  16) = (   0.2570000   0.8760000   0.8900000  )

   Crystallographic axes

     site n.     atom                  positions (cryst. coord.)
         1           N   tau(   1) = (  0.2110000  0.2110000  0.2110000  )
         2           N   tau(   2) = (  0.2890000  0.7890000  0.7110000  )
         3           N   tau(   3) = (  0.7890000  0.7110000  0.2890000  )
         4           N   tau(   4) = (  0.7110000  0.2890000  0.7890000  )
         5           H   tau(   5) = (  0.3900000  0.2430000  0.1240000  )
         6           H   tau(   6) = (  0.1100000  0.7570000  0.6240000  )
         7           H   tau(   7) = (  0.6100000  0.7430000  0.3760000  )
         8           H   tau(   8) = (  0.8900000  0.2570000  0.8760000  )
         9           H   tau(   9) = (  0.1240000  0.3900000  0.2430000  )
        10           H   tau(  10) = (  0.6240000  0.1100000  0.7570000  )
        11           H   tau(  11) = (  0.3760000  0.6100000  0.7430000  )
        12           H   tau(  12) = (  0.8760000  0.8900000  0.2570000  )
        13           H   tau(  13) = (  0.2430000  0.1240000  0.3900000  )
        14           H   tau(  14) = (  0.7570000  0.6240000  0.1100000  )
        15           H   tau(  15) = (  0.7430000  0.3760000  0.6100000  )
        16           H   tau(  16) = (  0.2570000  0.8760000  0.8900000  )

     number of k points=    24  Marzari-Vanderbilt smearing, width (Ry)=  0.0147
                       cart. coord. in units 2pi/alat
        k(    1) = (   0.0000000   0.0000000   0.0000000), wk =   0.0058309
        k(    2) = (   0.0000000   0.0000000   0.1428571), wk =   0.0349854
        k(    3) = (   0.0000000   0.0000000   0.2857143), wk =   0.0349854
        k(    4) = (   0.0000000   0.0000000   0.4285714), wk =   0.0349854
        k(    5) = (   0.0000000   0.1428571   0.1428571), wk =   0.0699708
        k(    6) = (   0.0000000   0.1428571   0.2857143), wk =   0.0699708
        k(    7) = (   0.0000000   0.1428571   0.4285714), wk =   0.0699708
        k(    8) = (   0.0000000   0.2857143   0.2857143), wk =   0.0699708
        k(    9) = (   0.0000000   0.2857143   0.4285714), wk =   0.0699708
        k(   10) = (   0.0000000   0.4285714   0.4285714), wk =   0.0699708
        k(   11) = (   0.1428571   0.1428571   0.1428571), wk =   0.0466472
        k(   12) = (   0.1428571   0.1428571   0.2857143), wk =   0.1399417
        k(   13) = (   0.1428571   0.1428571   0.4285714), wk =   0.1399417
        k(   14) = (   0.1428571   0.2857143   0.2857143), wk =   0.1399417
        k(   15) = (   0.1428571   0.2857143   0.4285714), wk =   0.1399417
        k(   16) = (   0.1428571   0.4285714   0.4285714), wk =   0.1399417
        k(   17) = (   0.2857143   0.2857143   0.2857143), wk =   0.0466472
        k(   18) = (   0.2857143   0.2857143   0.4285714), wk =   0.1399417
        k(   19) = (   0.2857143   0.4285714   0.4285714), wk =   0.1399417
        k(   20) = (   0.4285714   0.4285714   0.4285714), wk =   0.0466472
        k(   21) = (   0.0000000   0.2857143   0.1428571), wk =   0.0699708
        k(   22) = (   0.0000000   0.4285714   0.1428571), wk =   0.0699708
        k(   23) = (   0.0000000   0.4285714   0.2857143), wk =   0.0699708
        k(   24) = (  -0.1428571   0.4285714   0.2857143), wk =   0.1399417

                       cryst. coord.
        k(    1) = (   0.0000000   0.0000000   0.0000000), wk =   0.0058309
        k(    2) = (   0.0000000   0.0000000   0.1428571), wk =   0.0349854
        k(    3) = (   0.0000000   0.0000000   0.2857143), wk =   0.0349854
        k(    4) = (   0.0000000   0.0000000   0.4285714), wk =   0.0349854
        k(    5) = (   0.0000000   0.1428571   0.1428571), wk =   0.0699708
        k(    6) = (   0.0000000   0.1428571   0.2857143), wk =   0.0699708
        k(    7) = (   0.0000000   0.1428571   0.4285714), wk =   0.0699708
        k(    8) = (   0.0000000   0.2857143   0.2857143), wk =   0.0699708
        k(    9) = (   0.0000000   0.2857143   0.4285714), wk =   0.0699708
        k(   10) = (   0.0000000   0.4285714   0.4285714), wk =   0.0699708
        k(   11) = (   0.1428571   0.1428571   0.1428571), wk =   0.0466472
        k(   12) = (   0.1428571   0.1428571   0.2857143), wk =   0.1399417
        k(   13) = (   0.1428571   0.1428571   0.4285714), wk =   0.1399417
        k(   14) = (   0.1428571   0.2857143   0.2857143), wk =   0.1399417
        k(   15) = (   0.1428571   0.2857143   0.4285714), wk =   0.1399417
        k(   16) = (   0.1428571   0.4285714   0.4285714), wk =   0.1399417
        k(   17) = (   0.2857143   0.2857143   0.2857143), wk =   0.0466472
        k(   18) = (   0.2857143   0.2857143   0.4285714), wk =   0.1399417
        k(   19) = (   0.2857143   0.4285714   0.4285714), wk =   0.1399417
        k(   20) = (   0.4285714   0.4285714   0.4285714), wk =   0.0466472
        k(   21) = (   0.0000000   0.2857143   0.1428571), wk =   0.0699708
        k(   22) = (   0.0000000   0.4285714   0.1428571), wk =   0.0699708
        k(   23) = (   0.0000000   0.4285714   0.2857143), wk =   0.0699708
        k(   24) = (  -0.1428571   0.4285714   0.2857143), wk =   0.1399417

     Dense  grid:   167037 G-vectors     FFT dimensions: (  72,  72,  72)

     Smooth grid:    58893 G-vectors     FFT dimensions: (  50,  50,  50)

     Dynamical RAM for                 wfc:       0.16 MB

     Dynamical RAM for     wfc (w. buffer):       4.02 MB

     Dynamical RAM for           str. fact:       0.36 MB

     Dynamical RAM for           local pot:       0.00 MB

     Dynamical RAM for          nlocal pot:       0.45 MB

     Dynamical RAM for                qrad:       1.00 MB

     Dynamical RAM for          rho,v,vnew:       1.26 MB

     Dynamical RAM for               rhoin:       0.42 MB

     Dynamical RAM for            rho*nmix:       2.91 MB

     Dynamical RAM for           G-vectors:       0.71 MB

     Dynamical RAM for          h,s,v(r/c):       0.07 MB

     Dynamical RAM for          <psi|beta>:       0.02 MB

     Dynamical RAM for                 psi:       0.32 MB

     Dynamical RAM for                hpsi:       0.32 MB

     Dynamical RAM for                spsi:       0.32 MB

     Dynamical RAM for      wfcinit/wfcrot:       0.47 MB

     Dynamical RAM for           addusdens:      10.01 MB

     Dynamical RAM for          addusforce:      14.12 MB

     Dynamical RAM for         addusstress:       9.10 MB

     Estimated static dynamical RAM per process >       9.96 MB

     Estimated max dynamical RAM per process >      27.00 MB

     Estimated total dynamical RAM >     377.97 MB

     Check: negative core charge=   -0.000001

     Initial potential from superposition of free atoms

     starting charge      31.9999, renormalised to      32.0000
     Starting wfcs are   28 randomized atomic wfcs

     total cpu time spent up to now is        2.7 secs

     Self-consistent Calculation

     iteration #  1     ecut=    60.00 Ry     beta= 0.40
     Davidson diagonalization with overlap

---- Real-time Memory Report at c_bands before calling an iterative solver
            48 MiB given to the printing process from OS
             0 MiB allocation reported by mallinfo(arena+hblkhd)
         23621 MiB available memory on the node where the printing process lives
------------------
     ethr =  1.00E-02,  avg # of iterations =  3.0

     total cpu time spent up to now is        6.5 secs

     total energy              =     -95.83605536 Ry
     estimated scf accuracy    <       2.13772777 Ry

     iteration #  2     ecut=    60.00 Ry     beta= 0.40
     Davidson diagonalization with overlap

---- Real-time Memory Report at c_bands before calling an iterative solver
            53 MiB given to the printing process from OS
             0 MiB allocation reported by mallinfo(arena+hblkhd)
         23512 MiB available memory on the node where the printing process lives
------------------
     ethr =  6.68E-03,  avg # of iterations =  2.0

     total cpu time spent up to now is        9.7 secs

     total energy              =     -96.22740560 Ry
     estimated scf accuracy    <       0.11636556 Ry

     iteration #  3     ecut=    60.00 Ry     beta= 0.40
     Davidson diagonalization with overlap

---- Real-time Memory Report at c_bands before calling an iterative solver
            53 MiB given to the printing process from OS
             0 MiB allocation reported by mallinfo(arena+hblkhd)
         23498 MiB available memory on the node where the printing process lives
------------------
     ethr =  3.64E-04,  avg # of iterations =  3.7

     total cpu time spent up to now is       12.7 secs

     total energy              =     -96.21687697 Ry
     estimated scf accuracy    <       0.04178876 Ry

     iteration #  4     ecut=    60.00 Ry     beta= 0.40
     Davidson diagonalization with overlap

---- Real-time Memory Report at c_bands before calling an iterative solver
            53 MiB given to the printing process from OS
             0 MiB allocation reported by mallinfo(arena+hblkhd)
         23496 MiB available memory on the node where the printing process lives
------------------
     ethr =  1.31E-04,  avg # of iterations =  2.9

     total cpu time spent up to now is       15.5 secs

     total energy              =     -96.21994391 Ry
     estimated scf accuracy    <       0.00293182 Ry

     iteration #  5     ecut=    60.00 Ry     beta= 0.40
     Davidson diagonalization with overlap

---- Real-time Memory Report at c_bands before calling an iterative solver
            53 MiB given to the printing process from OS
             0 MiB allocation reported by mallinfo(arena+hblkhd)
         23494 MiB available memory on the node where the printing process lives
------------------
     ethr =  9.16E-06,  avg # of iterations =  5.0

     total cpu time spent up to now is       18.9 secs

     total energy              =     -96.21951263 Ry
     estimated scf accuracy    <       0.00264816 Ry

     iteration #  6     ecut=    60.00 Ry     beta= 0.40
     Davidson diagonalization with overlap

---- Real-time Memory Report at c_bands before calling an iterative solver
            53 MiB given to the printing process from OS
             0 MiB allocation reported by mallinfo(arena+hblkhd)
         23492 MiB available memory on the node where the printing process lives
------------------
     ethr =  8.28E-06,  avg # of iterations =  1.0

     total cpu time spent up to now is       21.3 secs

     total energy              =     -96.21885182 Ry
     estimated scf accuracy    <       0.00107286 Ry

     iteration #  7     ecut=    60.00 Ry     beta= 0.40
     Davidson diagonalization with overlap

---- Real-time Memory Report at c_bands before calling an iterative solver
            54 MiB given to the printing process from OS
             0 MiB allocation reported by mallinfo(arena+hblkhd)
         23491 MiB available memory on the node where the printing process lives
------------------
     ethr =  3.35E-06,  avg # of iterations =  2.0

     total cpu time spent up to now is       24.7 secs

     total energy              =     -96.21930597 Ry
     estimated scf accuracy    <       0.00116889 Ry

     iteration #  8     ecut=    60.00 Ry     beta= 0.40
     Davidson diagonalization with overlap

---- Real-time Memory Report at c_bands before calling an iterative solver
            54 MiB given to the printing process from OS
             0 MiB allocation reported by mallinfo(arena+hblkhd)
         23489 MiB available memory on the node where the printing process lives
------------------
     ethr =  3.35E-06,  avg # of iterations =  1.0

     total cpu time spent up to now is       27.1 secs

     total energy              =     -96.21931136 Ry
     estimated scf accuracy    <       0.00024650 Ry

     iteration #  9     ecut=    60.00 Ry     beta= 0.40
     Davidson diagonalization with overlap

---- Real-time Memory Report at c_bands before calling an iterative solver
            54 MiB given to the printing process from OS
             0 MiB allocation reported by mallinfo(arena+hblkhd)
         23488 MiB available memory on the node where the printing process lives
------------------
     ethr =  7.70E-07,  avg # of iterations =  1.0

     total cpu time spent up to now is       29.6 secs

     total energy              =     -96.21926688 Ry
     estimated scf accuracy    <       0.00008276 Ry

     iteration # 10     ecut=    60.00 Ry     beta= 0.40
     Davidson diagonalization with overlap

---- Real-time Memory Report at c_bands before calling an iterative solver
            54 MiB given to the printing process from OS
             0 MiB allocation reported by mallinfo(arena+hblkhd)
         23486 MiB available memory on the node where the printing process lives
------------------
     ethr =  2.59E-07,  avg # of iterations =  2.5

     total cpu time spent up to now is       33.0 secs

     total energy              =     -96.21925754 Ry
     estimated scf accuracy    <       0.00011313 Ry

     iteration # 11     ecut=    60.00 Ry     beta= 0.40
     Davidson diagonalization with overlap

---- Real-time Memory Report at c_bands before calling an iterative solver
            54 MiB given to the printing process from OS
             0 MiB allocation reported by mallinfo(arena+hblkhd)
         23483 MiB available memory on the node where the printing process lives
------------------
     ethr =  2.59E-07,  avg # of iterations =  3.0

     total cpu time spent up to now is       36.6 secs

     total energy              =     -96.21925491 Ry
     estimated scf accuracy    <       0.00032026 Ry

     iteration # 12     ecut=    60.00 Ry     beta= 0.40
     Davidson diagonalization with overlap

---- Real-time Memory Report at c_bands before calling an iterative solver
            54 MiB given to the printing process from OS
             0 MiB allocation reported by mallinfo(arena+hblkhd)
         23482 MiB available memory on the node where the printing process lives
------------------
     ethr =  2.59E-07,  avg # of iterations =  2.0

     total cpu time spent up to now is       39.9 secs

     total energy              =     -96.21930340 Ry
     estimated scf accuracy    <       0.00000184 Ry

     iteration # 13     ecut=    60.00 Ry     beta= 0.40
     Davidson diagonalization with overlap

---- Real-time Memory Report at c_bands before calling an iterative solver
            54 MiB given to the printing process from OS
             0 MiB allocation reported by mallinfo(arena+hblkhd)
         23482 MiB available memory on the node where the printing process lives
------------------
     ethr =  5.76E-09,  avg # of iterations =  3.0

     total cpu time spent up to now is       43.4 secs

     total energy              =     -96.21930454 Ry
     estimated scf accuracy    <       0.00000066 Ry

     iteration # 14     ecut=    60.00 Ry     beta= 0.40
     Davidson diagonalization with overlap

---- Real-time Memory Report at c_bands before calling an iterative solver
            54 MiB given to the printing process from OS
             0 MiB allocation reported by mallinfo(arena+hblkhd)
         23482 MiB available memory on the node where the printing process lives
------------------
     ethr =  2.07E-09,  avg # of iterations =  1.0

     total cpu time spent up to now is       45.9 secs

     total energy              =     -96.21930438 Ry
     estimated scf accuracy    <       0.00000030 Ry

     iteration # 15     ecut=    60.00 Ry     beta= 0.40
     Davidson diagonalization with overlap

---- Real-time Memory Report at c_bands before calling an iterative solver
            54 MiB given to the printing process from OS
             0 MiB allocation reported by mallinfo(arena+hblkhd)
         23482 MiB available memory on the node where the printing process lives
------------------
     ethr =  9.32E-10,  avg # of iterations =  2.0

     total cpu time spent up to now is       49.2 secs

     total energy              =     -96.21930448 Ry
     estimated scf accuracy    <       0.00000004 Ry

     iteration # 16     ecut=    60.00 Ry     beta= 0.40
     Davidson diagonalization with overlap

---- Real-time Memory Report at c_bands before calling an iterative solver
            54 MiB given to the printing process from OS
             0 MiB allocation reported by mallinfo(arena+hblkhd)
         23482 MiB available memory on the node where the printing process lives
------------------
     ethr =  1.15E-10,  avg # of iterations =  1.0

     total cpu time spent up to now is       51.6 secs

     total energy              =     -96.21930447 Ry
     estimated scf accuracy    <       0.00000001 Ry

     iteration # 17     ecut=    60.00 Ry     beta= 0.40
     Davidson diagonalization with overlap

---- Real-time Memory Report at c_bands before calling an iterative solver
            54 MiB given to the printing process from OS
             0 MiB allocation reported by mallinfo(arena+hblkhd)
         23482 MiB available memory on the node where the printing process lives
------------------
     ethr =  3.69E-11,  avg # of iterations =  2.0

     total cpu time spent up to now is       54.7 secs

     End of self-consistent calculation

          k = 0.0000 0.0000 0.0000 (  7249 PWs)   bands (ev):

   -17.1117 -16.5153 -16.5153 -16.5153  -7.5325  -7.5325  -7.5325  -6.7396
    -6.7396  -6.4953  -6.4953  -6.4953  -2.2063  -2.2063  -2.2063  -1.8043
     2.2958   5.0848   5.0848   5.0848

     occupation numbers 
     1.0000   1.0000   1.0000   1.0000   1.0000   1.0000   1.0000   1.0000
     1.0000   1.0000   1.0000   1.0000   1.0000   1.0000   1.0000   1.0000
     0.0000   0.0000   0.0000   0.0000

          k = 0.0000 0.0000 0.1429 (  7336 PWs)   bands (ev):

   -17.0858 -16.5678 -16.5128 -16.4937  -7.5505  -7.5214  -7.4542  -6.7677
    -6.7252  -6.5708  -6.5268  -6.4628  -2.2962  -2.2606  -2.1332  -1.8291
     2.5019   5.0126   5.2604   5.3330

     occupation numbers 
     1.0000   1.0000   1.0000   1.0000   1.0000   1.0000   1.0000   1.0000
     1.0000   1.0000   1.0000   1.0000   1.0000   1.0000   1.0000   1.0000
     0.0000   0.0000   0.0000   0.0000

          k = 0.0000 0.0000 0.2857 (  7372 PWs)   bands (ev):

   -17.0121 -16.6585 -16.5063 -16.4885  -7.5257  -7.4958  -7.3162  -6.8464
    -6.6841  -6.6584  -6.6078  -6.4824  -2.3845  -2.3673  -2.0789  -1.8934
     3.0504   4.9187   5.7208   5.7579

     occupation numbers 
     1.0000   1.0000   1.0000   1.0000   1.0000   1.0000   1.0000   1.0000
     1.0000   1.0000   1.0000   1.0000   1.0000   1.0000   1.0000   1.0000
     0.0000   0.0000   0.0000   0.0000

          k = 0.0000 0.0000 0.4286 (  7388 PWs)   bands (ev):

   -16.9029 -16.7773 -16.4981 -16.4913  -7.4903  -7.4781  -7.1414  -6.9721
    -6.7136  -6.6967  -6.6138  -6.5412  -2.4421  -2.4398  -2.0294  -1.9679
     3.7821   4.4912   6.1993   6.2090

     occupation numbers 
     1.0000   1.0000   1.0000   1.0000   1.0000   1.0000   1.0000   1.0000
     1.0000   1.0000   1.0000   1.0000   1.0000   1.0000   1.0000   1.0000
     0.0000   0.0000   0.0000   0.0000

          k = 0.0000 0.1429 0.1429 (  7369 PWs)   bands (ev):

   -17.0608 -16.5846 -16.5272 -16.4893  -7.5364  -7.5226  -7.4097  -6.7764
    -6.7360  -6.6013  -6.5734  -6.4410  -2.3255  -2.3131  -2.1043  -1.8512
     2.6925   5.0656   5.3668   5.5102

     occupation numbers 
     1.0000   1.0000   1.0000   1.0000   1.0000   1.0000   1.0000   1.0000
     1.0000   1.0000   1.0000   1.0000   1.0000   1.0000   1.0000   1.0000
     0.0000   0.0000   0.0000   0.0000

          k = 0.0000 0.1429 0.2857 (  7377 PWs)   bands (ev):

   -16.9901 -16.6570 -16.5269 -16.4920  -7.5163  -7.5018  -7.2987  -6.8273
    -6.7731  -6.6818  -6.5889  -6.4482  -2.3978  -2.3871  -2.0640  -1.9073
     3.2080   5.0466   5.6818   5.9586

     occupation numbers 
     1.0000   1.0000   1.0000   1.0000   1.0000   1.0000   1.0000   1.0000
     1.0000   1.0000   1.0000   1.0000   1.0000   1.0000   1.0000   1.0000
     0.0000   0.0000   0.0000   0.0000

          k = 0.0000 0.1429 0.4286 (  7375 PWs)   bands (ev):

   -16.8858 -16.7668 -16.5150 -16.5018  -7.4958  -7.4859  -7.1422  -6.9682
    -6.7861  -6.7440  -6.5523  -6.4932  -2.4467  -2.4385  -2.0237  -1.9715
     3.9134   4.6198   6.1410   6.3640

     occupation numbers 
     1.0000   1.0000   1.0000   1.0000   1.0000   1.0000   1.0000   1.0000
     1.0000   1.0000   1.0000   1.0000   1.0000   1.0000   1.0000   1.0000
     0.0000   0.0000   0.0000   0.0000

          k = 0.0000 0.2857 0.2857 (  7385 PWs)   bands (ev):

   -16.9283 -16.6717 -16.5599 -16.5076  -7.5076  -7.4873  -7.2711  -6.9238
    -6.7922  -6.6879  -6.5681  -6.4416  -2.4406  -2.4041  -2.0409  -1.9409
     3.6459   5.2683   5.7179   6.3290

     occupation numbers 
     1.0000   1.0000   1.0000   1.0000   1.0000   1.0000   1.0000   1.0000
     1.0000   1.0000   1.0000   1.0000   1.0000   1.0000   1.0000   1.0000
     0.0000   0.0000   0.0000   0.0000

          k = 0.0000 0.2857 0.4286 (  7405 PWs)   bands (ev):

   -16.8386 -16.7416 -16.5565 -16.5321  -7.4978  -7.4905  -7.1845  -7.0560
    -6.7799  -6.7311  -6.5121  -6.4631  -2.4523  -2.4351  -2.0138  -1.9803
     4.2816   4.9713   5.9498   6.4511

     occupation numbers 
     1.0000   1.0000   1.0000   1.0000   1.0000   1.0000   1.0000   1.0000
     1.0000   1.0000   1.0000   1.0000   1.0000   1.0000   1.0000   1.0000
     0.0000   0.0000   0.0000   0.0000

          k = 0.0000 0.4286 0.4286 (  7383 PWs)   bands (ev):

   -16.7757 -16.7315 -16.5898 -16.5714  -7.4869  -7.4781  -7.2315  -7.1820
    -6.6991  -6.6704  -6.5165  -6.4892  -2.4470  -2.4376  -2.0039  -1.9918
     4.8177   5.3600   5.5499   6.0157

     occupation numbers 
     1.0000   1.0000   1.0000   1.0000   1.0000   1.0000   1.0000   1.0000
     1.0000   1.0000   1.0000   1.0000   1.0000   1.0000   1.0000   1.0000
     0.0000   0.0000   0.0000   0.0000

          k = 0.1429 0.1429 0.1429 (  7373 PWs)   bands (ev):

   -17.0369 -16.5952 -16.5391 -16.4920  -7.5281  -7.5209  -7.3798  -6.7753
    -6.7429  -6.6824  -6.5603  -6.4249  -2.3564  -2.3395  -2.0838  -1.8707
     2.8681   5.1171   5.5155   5.6294

     occupation numbers 
     1.0000   1.0000   1.0000   1.0000   1.0000   1.0000   1.0000   1.0000
     1.0000   1.0000   1.0000   1.0000   1.0000   1.0000   1.0000   1.0000
     0.0000   0.0000   0.0000   0.0000

          k = 0.1429 0.1429 0.2857 (  7389 PWs)   bands (ev):

   -16.9692 -16.6553 -16.5414 -16.5003  -7.5251  -7.4946  -7.3043  -6.8547
    -6.7790  -6.7060  -6.5624  -6.4290  -2.4201  -2.3814  -2.0525  -1.9194
     3.3495   5.1264   5.7906   6.0440

     occupation numbers 
     1.0000   1.0000   1.0000   1.0000   1.0000   1.0000   1.0000   1.0000
     1.0000   1.0000   1.0000   1.0000   1.0000   1.0000   1.0000   1.0000
     0.0000   0.0000   0.0000   0.0000

          k = 0.1429 0.1429 0.4286 (  7383 PWs)   bands (ev):

   -16.8696 -16.7569 -16.5287 -16.5133  -7.5081  -7.4894  -7.1848  -7.0251
    -6.7592  -6.7112  -6.5358  -6.4742  -2.4470  -2.4269  -2.0198  -1.9750
     4.0223   4.7126   6.1974   6.4768

     occupation numbers 
     1.0000   1.0000   1.0000   1.0000   1.0000   1.0000   1.0000   1.0000
     1.0000   1.0000   1.0000   1.0000   1.0000   1.0000   1.0000   1.0000
     0.0000   0.0000   0.0000   0.0000

          k = 0.1429 0.2857 0.2857 (  7400 PWs)   bands (ev):

   -16.9102 -16.6681 -16.5691 -16.5188  -7.5293  -7.4954  -7.3014  -6.9822
    -6.7654  -6.6775  -6.5337  -6.4133  -2.4407  -2.3895  -2.0319  -1.9496
     3.7508   5.3037   5.8166   6.3525

     occupation numbers 
     1.0000   1.0000   1.0000   1.0000   1.0000   1.0000   1.0000   1.0000
     1.0000   1.0000   1.0000   1.0000   1.0000   1.0000   1.0000   1.0000
     0.0000   0.0000   0.0000   0.0000

          k = 0.1429 0.2857 0.4286 (  7389 PWs)   bands (ev):

   -16.8251 -16.7333 -16.5654 -16.5425  -7.5241  -7.5088  -7.2484  -7.1322
    -6.7203  -6.6755  -6.4880  -6.4358  -2.4355  -2.4117  -2.0112  -1.9840
     4.3453   5.0068   5.9529   6.4041

     occupation numbers 
     1.0000   1.0000   1.0000   1.0000   1.0000   1.0000   1.0000   1.0000
     1.0000   1.0000   1.0000   1.0000   1.0000   1.0000   1.0000   1.0000
     0.0000   0.0000   0.0000   0.0000

          k = 0.1429 0.4286 0.4286 (  7388 PWs)   bands (ev):

   -16.7657 -16.7237 -16.5962 -16.5791  -7.5202  -7.5097  -7.3027  -7.2561
    -6.6374  -6.6088  -6.4827  -6.4525  -2.4157  -2.4041  -2.0052  -1.9958
     4.8293   5.3380   5.5105   5.9144

     occupation numbers 
     1.0000   1.0000   1.0000   1.0000   1.0000   1.0000   1.0000   1.0000
     1.0000   1.0000   1.0000   1.0000   1.0000   1.0000   1.0000   1.0000
     0.0000   0.0000   0.0000   0.0000

          k = 0.2857 0.2857 0.2857 (  7388 PWs)   bands (ev):

   -16.8598 -16.6688 -16.5916 -16.5431  -7.5531  -7.5253  -7.3564  -7.1293
    -6.6945  -6.6079  -6.4933  -6.3802  -2.4239  -2.3648  -2.0185  -1.9725
     4.0590   5.3845   5.9770   6.0349

     occupation numbers 
     1.0000   1.0000   1.0000   1.0000   1.0000   1.0000   1.0000   1.0000
     1.0000   1.0000   1.0000   1.0000   1.0000   1.0000   1.0000   1.0000
     0.0000   0.0000   0.0000   0.0000

          k = 0.2857 0.2857 0.4286 (  7374 PWs)   bands (ev):

   -16.7878 -16.7131 -16.5910 -16.5689  -7.5615  -7.5493  -7.3629  -7.2762
    -6.6149  -6.5661  -6.4496  -6.3935  -2.3871  -2.3594  -2.0112  -1.9975
     4.5428   5.1197   5.8218   5.9919

     occupation numbers 
     1.0000   1.0000   1.0000   1.0000   1.0000   1.0000   1.0000   1.0000
     1.0000   1.0000   1.0000   1.0000   1.0000   1.0000   1.0000   1.0000
     0.0000   0.0000   0.0000   0.0000

          k = 0.2857 0.4286 0.4286 (  7387 PWs)   bands (ev):

   -16.7382 -16.7032 -16.6151 -16.6000  -7.5765  -7.5700  -7.4342  -7.3976
    -6.5251  -6.4919  -6.4235  -6.3882  -2.3322  -2.3186  -2.0190  -2.0160
     4.8821   5.2852   5.4008   5.6208

     occupation numbers 
     1.0000   1.0000   1.0000   1.0000   1.0000   1.0000   1.0000   1.0000
     1.0000   1.0000   1.0000   1.0000   1.0000   1.0000   1.0000   1.0000
     0.0000   0.0000   0.0000   0.0000

          k = 0.4286 0.4286 0.4286 (  7409 PWs)   bands (ev):

   -16.7017 -16.6822 -16.6388 -16.6272  -7.6025  -7.5994  -7.5298  -7.5120
    -6.4356  -6.4035  -6.3938  -6.3610  -2.2362  -2.2278  -2.0575  -2.0555
     5.0198   5.2383   5.2881   5.2935

     occupation numbers 
     1.0000   1.0000   1.0000   1.0000   1.0000   1.0000   1.0000   1.0000
     1.0000   1.0000   1.0000   1.0000   1.0000   1.0000   1.0000   1.0000
     0.0000   0.0000   0.0000   0.0000

          k = 0.0000 0.2857 0.1429 (  7377 PWs)   bands (ev):

   -16.9901 -16.6570 -16.5269 -16.4920  -7.5202  -7.4914  -7.3086  -6.8598
    -6.7232  -6.6721  -6.6034  -6.4575  -2.4058  -2.3775  -2.0658  -1.9070
     3.2073   5.0259   5.7526   5.9206

     occupation numbers 
     1.0000   1.0000   1.0000   1.0000   1.0000   1.0000   1.0000   1.0000
     1.0000   1.0000   1.0000   1.0000   1.0000   1.0000   1.0000   1.0000
     0.0000   0.0000   0.0000   0.0000

          k = 0.0000 0.4286 0.1429 (  7375 PWs)   bands (ev):

   -16.8858 -16.7668 -16.5150 -16.5018  -7.4939  -7.4755  -7.1688  -7.0053
    -6.7320  -6.6777  -6.5964  -6.5185  -2.4495  -2.4335  -2.0254  -1.9717
     3.9089   4.6055   6.2332   6.3560

     occupation numbers 
     1.0000   1.0000   1.0000   1.0000   1.0000   1.0000   1.0000   1.0000
     1.0000   1.0000   1.0000   1.0000   1.0000   1.0000   1.0000   1.0000
     0.0000   0.0000   0.0000   0.0000

          k = 0.0000 0.4286 0.2857 (  7405 PWs)   bands (ev):

   -16.8386 -16.7416 -16.5565 -16.5321  -7.4940  -7.4748  -7.2175  -7.0908
    -6.7281  -6.6631  -6.5575  -6.4896  -2.4524  -2.4319  -2.0158  -1.9807
     4.2705   4.9270   6.1028   6.5530

     occupation numbers 
     1.0000   1.0000   1.0000   1.0000   1.0000   1.0000   1.0000   1.0000
     1.0000   1.0000   1.0000   1.0000   1.0000   1.0000   1.0000   1.0000
     0.0000   0.0000   0.0000   0.0000

          k =-0.1429 0.4286 0.2857 (  7389 PWs)   bands (ev):

   -16.8251 -16.7333 -16.5654 -16.5425  -7.5215  -7.5011  -7.2630  -7.1454
    -6.6990  -6.6457  -6.5093  -6.4484  -2.4353  -2.4102  -2.0124  -1.9842
     4.3383   4.9780   6.0545   6.4628

     occupation numbers 
     1.0000   1.0000   1.0000   1.0000   1.0000   1.0000   1.0000   1.0000
     1.0000   1.0000   1.0000   1.0000   1.0000   1.0000   1.0000   1.0000
     0.0000   0.0000   0.0000   0.0000

     the Fermi energy is    -0.0922 ev

!    total energy              =     -96.21930448 Ry
     estimated scf accuracy    <          3.5E-10 Ry
     smearing contrib. (-TS)   =       0.00000000 Ry
     internal energy E=F+TS    =     -96.21930448 Ry

     The total energy is F=E-TS. E is the sum of the following terms:
     one-electron contribution =     -59.36103033 Ry
     hartree contribution      =      38.95066530 Ry
     xc contribution           =     -31.46553885 Ry
     ewald contribution        =     -44.34340060 Ry

     convergence has been achieved in  17 iterations

     Forces acting on atoms (cartesian axes, Ry/au):

     atom    1 type  2   force =     0.01167391    0.01167391    0.01167391
     atom    2 type  2   force =    -0.01167391   -0.01167391    0.01167391
     atom    3 type  2   force =    -0.01167391    0.01167391   -0.01167391
     atom    4 type  2   force =     0.01167391   -0.01167391   -0.01167391
     atom    5 type  1   force =    -0.02586747    0.00036775    0.01453762
     atom    6 type  1   force =     0.02586747   -0.00036775    0.01453762
     atom    7 type  1   force =     0.02586747    0.00036775   -0.01453762
     atom    8 type  1   force =    -0.02586747   -0.00036775   -0.01453762
     atom    9 type  1   force =     0.01453762   -0.02586747    0.00036775
     atom   10 type  1   force =     0.01453762    0.02586747   -0.00036775
     atom   11 type  1   force =    -0.01453762    0.02586747    0.00036775
     atom   12 type  1   force =    -0.01453762   -0.02586747   -0.00036775
     atom   13 type  1   force =     0.00036775    0.01453762   -0.02586747
     atom   14 type  1   force =    -0.00036775    0.01453762    0.02586747
     atom   15 type  1   force =     0.00036775   -0.01453762    0.02586747
     atom   16 type  1   force =    -0.00036775   -0.01453762   -0.02586747
     The non-local contrib.  to forces
     atom    1 type  2   force =     0.69821108    0.69821108    0.69821108
     atom    2 type  2   force =    -0.69821108   -0.69821108    0.69821108
     atom    3 type  2   force =    -0.69821108    0.69821108   -0.69821108
     atom    4 type  2   force =     0.69821108   -0.69821108   -0.69821108
     atom    5 type  1   force =    -0.07758590   -0.01305482    0.04029922
     atom    6 type  1   force =     0.07758590    0.01305482    0.04029922
     atom    7 type  1   force =     0.07758590   -0.01305482   -0.04029922
     atom    8 type  1   force =    -0.07758590    0.01305482   -0.04029922
     atom    9 type  1   force =     0.04029922   -0.07758590   -0.01305482
     atom   10 type  1   force =     0.04029922    0.07758590    0.01305482
     atom   11 type  1   force =    -0.04029922    0.07758590   -0.01305482
     atom   12 type  1   force =    -0.04029922   -0.07758590    0.01305482
     atom   13 type  1   force =    -0.01305482    0.04029922   -0.07758590
     atom   14 type  1   force =     0.01305482    0.04029922    0.07758590
     atom   15 type  1   force =    -0.01305482   -0.04029922    0.07758590
     atom   16 type  1   force =     0.01305482   -0.04029922   -0.07758590
     The ionic contribution  to forces
     atom    1 type  2   force =    -1.07294925   -1.07294925   -1.07294925
     atom    2 type  2   force =     1.07294925    1.07294925   -1.07294925
     atom    3 type  2   force =     1.07294925   -1.07294925    1.07294925
     atom    4 type  2   force =    -1.07294925    1.07294925    1.07294925
     atom    5 type  1   force =     2.08551745    0.37864597   -0.93862910
     atom    6 type  1   force =    -2.08551745   -0.37864597   -0.93862910
     atom    7 type  1   force =    -2.08551745    0.37864597    0.93862910
     atom    8 type  1   force =     2.08551745   -0.37864597    0.93862910
     atom    9 type  1   force =    -0.93862910    2.08551745    0.37864597
     atom   10 type  1   force =    -0.93862910   -2.08551745   -0.37864597
     atom   11 type  1   force =     0.93862910   -2.08551745    0.37864597
     atom   12 type  1   force =     0.93862910    2.08551745   -0.37864597
     atom   13 type  1   force =     0.37864597   -0.93862910    2.08551745
     atom   14 type  1   force =    -0.37864597   -0.93862910   -2.08551745
     atom   15 type  1   force =     0.37864597    0.93862910   -2.08551745
     atom   16 type  1   force =    -0.37864597    0.93862910    2.08551745
     The local contribution  to forces
     atom    1 type  2   force =     0.39650432    0.39650432    0.39650432
     atom    2 type  2   force =    -0.39650432   -0.39650432    0.39650432
     atom    3 type  2   force =    -0.39650432    0.39650432   -0.39650432
     atom    4 type  2   force =     0.39650432   -0.39650432   -0.39650432
     atom    5 type  1   force =    -2.03379703   -0.36522299    0.91286672
     atom    6 type  1   force =     2.03379703    0.36522299    0.91286672
     atom    7 type  1   force =     2.03379703   -0.36522299   -0.91286672
     atom    8 type  1   force =    -2.03379703    0.36522299   -0.91286672
     atom    9 type  1   force =     0.91286672   -2.03379703   -0.36522299
     atom   10 type  1   force =     0.91286672    2.03379703    0.36522299
     atom   11 type  1   force =    -0.91286672    2.03379703   -0.36522299
     atom   12 type  1   force =    -0.91286672   -2.03379703    0.36522299
     atom   13 type  1   force =    -0.36522299    0.91286672   -2.03379703
     atom   14 type  1   force =     0.36522299    0.91286672    2.03379703
     atom   15 type  1   force =    -0.36522299   -0.91286672    2.03379703
     atom   16 type  1   force =     0.36522299   -0.91286672   -2.03379703
     The core correction contribution to forces
     atom    1 type  2   force =    -0.01009030   -0.01009030   -0.01009030
     atom    2 type  2   force =     0.01009030    0.01009030   -0.01009030
     atom    3 type  2   force =     0.01009030   -0.01009030    0.01009030
     atom    4 type  2   force =    -0.01009030    0.01009030    0.01009030
     atom    5 type  1   force =     0.00000000    0.00000000    0.00000000
     atom    6 type  1   force =     0.00000000    0.00000000    0.00000000
     atom    7 type  1   force =     0.00000000    0.00000000    0.00000000
     atom    8 type  1   force =     0.00000000    0.00000000    0.00000000
     atom    9 type  1   force =     0.00000000    0.00000000    0.00000000
     atom   10 type  1   force =     0.00000000    0.00000000    0.00000000
     atom   11 type  1   force =     0.00000000    0.00000000    0.00000000
     atom   12 type  1   force =     0.00000000    0.00000000    0.00000000
     atom   13 type  1   force =     0.00000000    0.00000000    0.00000000
     atom   14 type  1   force =     0.00000000    0.00000000    0.00000000
     atom   15 type  1   force =     0.00000000    0.00000000    0.00000000
     atom   16 type  1   force =     0.00000000    0.00000000    0.00000000
     The Hubbard contrib.    to forces
     atom    1 type  2   force =     0.00000000    0.00000000    0.00000000
     atom    2 type  2   force =     0.00000000    0.00000000    0.00000000
     atom    3 type  2   force =     0.00000000    0.00000000    0.00000000
     atom    4 type  2   force =     0.00000000    0.00000000    0.00000000
     atom    5 type  1   force =     0.00000000    0.00000000    0.00000000
     atom    6 type  1   force =     0.00000000    0.00000000    0.00000000
     atom    7 type  1   force =     0.00000000    0.00000000    0.00000000
     atom    8 type  1   force =     0.00000000    0.00000000    0.00000000
     atom    9 type  1   force =     0.00000000    0.00000000    0.00000000
     atom   10 type  1   force =     0.00000000    0.00000000    0.00000000
     atom   11 type  1   force =     0.00000000    0.00000000    0.00000000
     atom   12 type  1   force =     0.00000000    0.00000000    0.00000000
     atom   13 type  1   force =     0.00000000    0.00000000    0.00000000
     atom   14 type  1   force =     0.00000000    0.00000000    0.00000000
     atom   15 type  1   force =     0.00000000    0.00000000    0.00000000
     atom   16 type  1   force =     0.00000000    0.00000000    0.00000000
     The SCF correction term to forces
     atom    1 type  2   force =    -0.00000194   -0.00000194   -0.00000194
     atom    2 type  2   force =     0.00000194    0.00000194   -0.00000194
     atom    3 type  2   force =     0.00000194   -0.00000194    0.00000194
     atom    4 type  2   force =    -0.00000194    0.00000194    0.00000194
     atom    5 type  1   force =    -0.00000198   -0.00000041    0.00000077
     atom    6 type  1   force =     0.00000198    0.00000041    0.00000077
     atom    7 type  1   force =     0.00000198   -0.00000041   -0.00000077
     atom    8 type  1   force =    -0.00000198    0.00000041   -0.00000077
     atom    9 type  1   force =     0.00000077   -0.00000198   -0.00000041
     atom   10 type  1   force =     0.00000077    0.00000198    0.00000041
     atom   11 type  1   force =    -0.00000077    0.00000198   -0.00000041
     atom   12 type  1   force =    -0.00000077   -0.00000198    0.00000041
     atom   13 type  1   force =    -0.00000041    0.00000077   -0.00000198
     atom   14 type  1   force =     0.00000041    0.00000077    0.00000198
     atom   15 type  1   force =    -0.00000041   -0.00000077    0.00000198
     atom   16 type  1   force =     0.00000041   -0.00000077   -0.00000198

     Total force =     0.110465     Total SCF correction =     0.000010


     Computing stress (Cartesian axis) and pressure

          total   stress  (Ry/bohr**3)                   (kbar)     P=      -37.92
  -0.00025776   0.00000000   0.00000000          -37.92        0.00        0.00
   0.00000000  -0.00025776   0.00000000            0.00      -37.92        0.00
   0.00000000   0.00000000  -0.00025776            0.00        0.00      -37.92

     kinetic stress (kbar)   6290.06      0.00      0.00
                                0.00   6290.06      0.00
                                0.00      0.00   6290.06

     local   stress (kbar)  -4525.84     -0.00      0.00
                               -0.00  -4525.84      0.00
                                0.00      0.00  -4525.84

     nonloc. stress (kbar)    -16.51      0.00      0.00
                                0.00    -16.51      0.00
                                0.00      0.00    -16.51

     hartree stress (kbar)   2030.39     -0.00     -0.00
                               -0.00   2030.39     -0.00
                               -0.00     -0.00   2030.39

     exc-cor stress (kbar)  -1076.71      0.00      0.00
                                0.00  -1076.71     -0.00
                                0.00     -0.00  -1076.71

     corecor stress (kbar)   -427.82     -0.00     -0.00
                               -0.00   -427.82     -0.00
                               -0.00     -0.00   -427.82

     ewald   stress (kbar)  -2311.49     -0.00      0.00
                               -0.00  -2311.49      0.00
                                0.00      0.00  -2311.49

     hubbard stress (kbar)      0.00      0.00      0.00
                                0.00      0.00      0.00
                                0.00      0.00      0.00

     DFT-D   stress (kbar)      0.00      0.00      0.00
                                0.00      0.00      0.00
                                0.00      0.00      0.00

     XDM     stress (kbar)      0.00      0.00      0.00
                                0.00      0.00      0.00
                                0.00      0.00      0.00

     dft-nl  stress (kbar)      0.00      0.00      0.00
                                0.00      0.00      0.00
                                0.00      0.00      0.00

     TS-vdW  stress (kbar)      0.00      0.00      0.00
                                0.00      0.00      0.00
                                0.00      0.00      0.00

     MDB     stress (kbar)      0.00      0.00      0.00
                                0.00      0.00      0.00
                                0.00      0.00      0.00

     3D-RISM stress (kbar)      0.00      0.00      0.00
                                0.00      0.00      0.00
                                0.00      0.00      0.00


     BFGS Geometry Optimization
     Energy error            =      0.0E+00 Ry
     Gradient error          =      2.6E-02 Ry/Bohr

     number of scf cycles    =   1
     number of bfgs steps    =   0

     energy             new  =     -96.2193044752 Ry

     new trust radius        =       0.0296749663 bohr
     new conv_thr            =       0.0000000032 Ry


ATOMIC_POSITIONS (crystal)
N             0.2121914301        0.2121914301        0.2121914301
N             0.2878085699        0.7878085699        0.7121914301
N             0.7878085699        0.7121914301        0.2878085699
N             0.7121914301        0.2878085699        0.7878085699
H             0.3873599856        0.2430375320        0.1254836988
H             0.1126400144        0.7569624680        0.6254836988
H             0.6126400144        0.7430375320        0.3745163012
H             0.8873599856        0.2569624680        0.8745163012
H             0.1254836988        0.3873599856        0.2430375320
H             0.6254836988        0.1126400144        0.7569624680
H             0.3745163012        0.6126400144        0.7430375320
H             0.8745163012        0.8873599856        0.2569624680
H             0.2430375320        0.1254836988        0.3873599856
H             0.7569624680        0.6254836988        0.1126400144
H             0.7430375320        0.3745163012        0.6126400144
H             0.2569624680        0.8745163012        0.8873599856



     Writing config-only to output data dir ./out/AC_Ph_1.save/
     NEW-OLD atomic charge density approx. for the potential

     Check: negative core charge=   -0.000001

     total cpu time spent up to now is       57.0 secs

     Self-consistent Calculation

     iteration #  1     ecut=    60.00 Ry     beta= 0.40
     Davidson diagonalization with overlap

---- Real-time Memory Report at c_bands before calling an iterative solver
            54 MiB given to the printing process from OS
             0 MiB allocation reported by mallinfo(arena+hblkhd)
         23479 MiB available memory on the node where the printing process lives
------------------
     ethr =  1.00E-06,  avg # of iterations =  6.0

     total cpu time spent up to now is       63.0 secs

     total energy              =     -96.22483017 Ry
     estimated scf accuracy    <       0.00536525 Ry

     iteration #  2     ecut=    60.00 Ry     beta= 0.40
     Davidson diagonalization with overlap

---- Real-time Memory Report at c_bands before calling an iterative solver
            54 MiB given to the printing process from OS
             0 MiB allocation reported by mallinfo(arena+hblkhd)
         23479 MiB available memory on the node where the printing process lives
------------------
     ethr =  1.68E-05,  avg # of iterations =  2.0

     total cpu time spent up to now is       66.1 secs

     total energy              =     -96.22579905 Ry
     estimated scf accuracy    <       0.00018563 Ry

     iteration #  3     ecut=    60.00 Ry     beta= 0.40
     Davidson diagonalization with overlap

---- Real-time Memory Report at c_bands before calling an iterative solver
            54 MiB given to the printing process from OS
             0 MiB allocation reported by mallinfo(arena+hblkhd)
         23479 MiB available memory on the node where the printing process lives
------------------
     ethr =  5.80E-07,  avg # of iterations =  1.6

     total cpu time spent up to now is       68.6 secs

     total energy              =     -96.22580650 Ry
     estimated scf accuracy    <       0.00005305 Ry

     iteration #  4     ecut=    60.00 Ry     beta= 0.40
     Davidson diagonalization with overlap

---- Real-time Memory Report at c_bands before calling an iterative solver
            54 MiB given to the printing process from OS
             0 MiB allocation reported by mallinfo(arena+hblkhd)
         23479 MiB available memory on the node where the printing process lives
------------------
     ethr =  1.66E-07,  avg # of iterations =  2.0

     total cpu time spent up to now is       71.7 secs

     total energy              =     -96.22581236 Ry
     estimated scf accuracy    <       0.00000447 Ry

     iteration #  5     ecut=    60.00 Ry     beta= 0.40
     Davidson diagonalization with overlap

---- Real-time Memory Report at c_bands before calling an iterative solver
            54 MiB given to the printing process from OS
             0 MiB allocation reported by mallinfo(arena+hblkhd)
         23479 MiB available memory on the node where the printing process lives
------------------
     ethr =  1.40E-08,  avg # of iterations =  2.0

     total cpu time spent up to now is       75.0 secs

     total energy              =     -96.22581337 Ry
     estimated scf accuracy    <       0.00000213 Ry

     iteration #  6     ecut=    60.00 Ry     beta= 0.40
     Davidson diagonalization with overlap

---- Real-time Memory Report at c_bands before calling an iterative solver
            54 MiB given to the printing process from OS
             0 MiB allocation reported by mallinfo(arena+hblkhd)
         23479 MiB available memory on the node where the printing process lives
------------------
     ethr =  6.64E-09,  avg # of iterations =  2.0

     total cpu time spent up to now is       78.1 secs

     total energy              =     -96.22581379 Ry
     estimated scf accuracy    <       0.00000003 Ry

     iteration #  7     ecut=    60.00 Ry     beta= 0.40
     Davidson diagonalization with overlap

---- Real-time Memory Report at c_bands before calling an iterative solver
            54 MiB given to the printing process from OS
             0 MiB allocation reported by mallinfo(arena+hblkhd)
         23479 MiB available memory on the node where the printing process lives
------------------
     ethr =  9.02E-11,  avg # of iterations =  2.0

     total cpu time spent up to now is       81.0 secs

     total energy              =     -96.22581379 Ry
     estimated scf accuracy    <       0.00000001 Ry

     iteration #  8     ecut=    60.00 Ry     beta= 0.40
     Davidson diagonalization with overlap

---- Real-time Memory Report at c_bands before calling an iterative solver
            54 MiB given to the printing process from OS
             0 MiB allocation reported by mallinfo(arena+hblkhd)
         23479 MiB available memory on the node where the printing process lives
------------------
     ethr =  3.22E-11,  avg # of iterations =  2.0

     total cpu time spent up to now is       84.1 secs

     End of self-consistent calculation

          k = 0.0000 0.0000 0.0000 (  7249 PWs)   bands (ev):

   -17.2892 -16.7196 -16.7196 -16.7196  -7.6695  -7.6695  -7.6695  -6.9177
    -6.9177  -6.6819  -6.6819  -6.6819  -2.1987  -2.1987  -2.1987  -1.8287
     2.3683   5.2025   5.2025   5.2025

     occupation numbers 
     1.0000   1.0000   1.0000   1.0000   1.0000   1.0000   1.0000   1.0000
     1.0000   1.0000   1.0000   1.0000   1.0000   1.0000   1.0000   1.0000
     0.0000   0.0000   0.0000   0.0000

          k = 0.0000 0.0000 0.1429 (  7336 PWs)   bands (ev):

   -17.2642 -16.7687 -16.7173 -16.6998  -7.6859  -7.6584  -7.5956  -6.9438
    -6.9041  -6.7518  -6.7129  -6.6532  -2.2821  -2.2494  -2.1326  -1.8519
     2.5697   5.1166   5.3755   5.4539

     occupation numbers 
     1.0000   1.0000   1.0000   1.0000   1.0000   1.0000   1.0000   1.0000
     1.0000   1.0000   1.0000   1.0000   1.0000   1.0000   1.0000   1.0000
     0.0000   0.0000   0.0000   0.0000

          k = 0.0000 0.0000 0.2857 (  7372 PWs)   bands (ev):

   -17.1934 -16.8548 -16.7114 -16.6953  -7.6616  -7.6330  -7.4650  -7.0172
    -6.8651  -6.8344  -6.7918  -6.6732  -2.3652  -2.3492  -2.0849  -1.9127
     3.1081   4.9928   5.8287   5.8771

     occupation numbers 
     1.0000   1.0000   1.0000   1.0000   1.0000   1.0000   1.0000   1.0000
     1.0000   1.0000   1.0000   1.0000   1.0000   1.0000   1.0000   1.0000
     0.0000   0.0000   0.0000   0.0000

          k = 0.0000 0.0000 0.4286 (  7388 PWs)   bands (ev):

   -17.0886 -16.9683 -16.7040 -16.6978  -7.6272  -7.6154  -7.2985  -7.1367
    -6.8886  -6.8755  -6.7986  -6.7296  -2.4196  -2.4174  -2.0406  -1.9833
     3.8316   4.5424   6.3065   6.3074

     occupation numbers 
     1.0000   1.0000   1.0000   1.0000   1.0000   1.0000   1.0000   1.0000
     1.0000   1.0000   1.0000   1.0000   1.0000   1.0000   1.0000   1.0000
     0.0000   0.0000   0.0000   0.0000

          k = 0.0000 0.1429 0.1429 (  7369 PWs)   bands (ev):

   -17.2402 -16.7844 -16.7312 -16.6960  -7.6719  -7.6601  -7.5528  -6.9514
    -6.9137  -6.7839  -6.7551  -6.6333  -2.3101  -2.2975  -2.1075  -1.8729
     2.7567   5.1659   5.4732   5.6311

     occupation numbers 
     1.0000   1.0000   1.0000   1.0000   1.0000   1.0000   1.0000   1.0000
     1.0000   1.0000   1.0000   1.0000   1.0000   1.0000   1.0000   1.0000
     0.0000   0.0000   0.0000   0.0000

          k = 0.0000 0.1429 0.2857 (  7377 PWs)   bands (ev):

   -17.1723 -16.8532 -16.7311 -16.6987  -7.6531  -7.6388  -7.4471  -6.9989
    -6.9463  -6.8624  -6.7718  -6.6411  -2.3765  -2.3682  -2.0727  -1.9264
     3.2644   5.1192   5.7849   6.0736

     occupation numbers 
     1.0000   1.0000   1.0000   1.0000   1.0000   1.0000   1.0000   1.0000
     1.0000   1.0000   1.0000   1.0000   1.0000   1.0000   1.0000   1.0000
     0.0000   0.0000   0.0000   0.0000

          k = 0.0000 0.1429 0.4286 (  7375 PWs)   bands (ev):

   -17.0721 -16.9581 -16.7202 -16.7079  -7.6329  -7.6231  -7.2983  -7.1325
    -6.9591  -6.9202  -6.7395  -6.6840  -2.4228  -2.4161  -2.0369  -1.9878
     3.9630   4.6703   6.2409   6.4629

     occupation numbers 
     1.0000   1.0000   1.0000   1.0000   1.0000   1.0000   1.0000   1.0000
     1.0000   1.0000   1.0000   1.0000   1.0000   1.0000   1.0000   1.0000
     0.0000   0.0000   0.0000   0.0000

          k = 0.0000 0.2857 0.2857 (  7385 PWs)   bands (ev):

   -17.1129 -16.8668 -16.7632 -16.7136  -7.6451  -7.6249  -7.4198  -7.0903
    -6.9648  -6.8679  -6.7528  -6.6353  -2.4162  -2.3834  -2.0542  -1.9596
     3.6993   5.3332   5.8001   6.4391

     occupation numbers 
     1.0000   1.0000   1.0000   1.0000   1.0000   1.0000   1.0000   1.0000
     1.0000   1.0000   1.0000   1.0000   1.0000   1.0000   1.0000   1.0000
     0.0000   0.0000   0.0000   0.0000

          k = 0.0000 0.2857 0.4286 (  7405 PWs)   bands (ev):

   -17.0269 -16.9338 -16.7600 -16.7368  -7.6354  -7.6279  -7.3373  -7.2156
    -6.9536  -6.9080  -6.7011  -6.6553  -2.4272  -2.4119  -2.0305  -1.9985
     4.3318   5.0198   6.0349   6.5280

     occupation numbers 
     1.0000   1.0000   1.0000   1.0000   1.0000   1.0000   1.0000   1.0000
     1.0000   1.0000   1.0000   1.0000   1.0000   1.0000   1.0000   1.0000
     0.0000   0.0000   0.0000   0.0000

          k = 0.0000 0.4286 0.4286 (  7383 PWs)   bands (ev):

   -16.9664 -16.9237 -16.7923 -16.7745  -7.6248  -7.6165  -7.3823  -7.3356
    -6.8771  -6.8505  -6.7047  -6.6794  -2.4221  -2.4136  -2.0231  -2.0114
     4.8689   5.3925   5.6384   6.0865

     occupation numbers 
     1.0000   1.0000   1.0000   1.0000   1.0000   1.0000   1.0000   1.0000
     1.0000   1.0000   1.0000   1.0000   1.0000   1.0000   1.0000   1.0000
     0.0000   0.0000   0.0000   0.0000

          k = 0.1429 0.1429 0.1429 (  7373 PWs)   bands (ev):

   -17.2172 -16.7943 -16.7425 -16.6989  -7.6658  -7.6567  -7.5239  -6.9490
    -6.9210  -6.8609  -6.7433  -6.6188  -2.3375  -2.3235  -2.0897  -1.8915
     2.9297   5.2152   5.6128   5.7493

     occupation numbers 
     1.0000   1.0000   1.0000   1.0000   1.0000   1.0000   1.0000   1.0000
     1.0000   1.0000   1.0000   1.0000   1.0000   1.0000   1.0000   1.0000
     0.0000   0.0000   0.0000   0.0000

          k = 0.1429 0.1429 0.2857 (  7389 PWs)   bands (ev):

   -17.1522 -16.8515 -16.7448 -16.7068  -7.6621  -7.6314  -7.4519  -7.0248
    -6.9519  -6.8855  -6.7468  -6.6234  -2.3970  -2.3629  -2.0631  -1.9381
     3.4053   5.2001   5.8876   6.1530

     occupation numbers 
     1.0000   1.0000   1.0000   1.0000   1.0000   1.0000   1.0000   1.0000
     1.0000   1.0000   1.0000   1.0000   1.0000   1.0000   1.0000   1.0000
     0.0000   0.0000   0.0000   0.0000

          k = 0.1429 0.1429 0.4286 (  7383 PWs)   bands (ev):

   -17.0566 -16.9487 -16.7331 -16.7189  -7.6448  -7.6262  -7.3386  -7.1869
    -6.9333  -6.8887  -6.7239  -6.6664  -2.4228  -2.4050  -2.0340  -1.9916
     4.0729   4.7643   6.2973   6.5708

     occupation numbers 
     1.0000   1.0000   1.0000   1.0000   1.0000   1.0000   1.0000   1.0000
     1.0000   1.0000   1.0000   1.0000   1.0000   1.0000   1.0000   1.0000
     0.0000   0.0000   0.0000   0.0000

          k = 0.1429 0.2857 0.2857 (  7400 PWs)   bands (ev):

   -17.0956 -16.8634 -16.7717 -16.7245  -7.6662  -7.6319  -7.4483  -7.1461
    -6.9387  -6.8587  -6.7203  -6.6087  -2.4158  -2.3704  -2.0459  -1.9677
     3.8053   5.3712   5.8967   6.4574

     occupation numbers 
     1.0000   1.0000   1.0000   1.0000   1.0000   1.0000   1.0000   1.0000
     1.0000   1.0000   1.0000   1.0000   1.0000   1.0000   1.0000   1.0000
     0.0000   0.0000   0.0000   0.0000

          k = 0.1429 0.2857 0.4286 (  7389 PWs)   bands (ev):

   -17.0140 -16.9260 -16.7684 -16.7468  -7.6604  -7.6450  -7.3981  -7.2883
    -6.8966  -6.8554  -6.6785  -6.6299  -2.4113  -2.3902  -2.0278  -2.0016
     4.3981   5.0586   6.0411   6.4903

     occupation numbers 
     1.0000   1.0000   1.0000   1.0000   1.0000   1.0000   1.0000   1.0000
     1.0000   1.0000   1.0000   1.0000   1.0000   1.0000   1.0000   1.0000
     0.0000   0.0000   0.0000   0.0000

          k = 0.1429 0.4286 0.4286 (  7388 PWs)   bands (ev):

   -16.9569 -16.9165 -16.7983 -16.7818  -7.6564  -7.6462  -7.4499  -7.4060
    -6.8186  -6.7923  -6.6731  -6.6451  -2.3927  -2.3823  -2.0233  -2.0141
     4.8848   5.3770   5.6027   5.9932

     occupation numbers 
     1.0000   1.0000   1.0000   1.0000   1.0000   1.0000   1.0000   1.0000
     1.0000   1.0000   1.0000   1.0000   1.0000   1.0000   1.0000   1.0000
     0.0000   0.0000   0.0000   0.0000

          k = 0.2857 0.2857 0.2857 (  7388 PWs)   bands (ev):

   -17.0473 -16.8642 -16.7930 -16.7478  -7.6891  -7.6599  -7.5001  -7.2859
    -6.8713  -6.7934  -6.6823  -6.5778  -2.3998  -2.3475  -2.0339  -1.9892
     4.1159   5.4515   6.0404   6.1442

     occupation numbers 
     1.0000   1.0000   1.0000   1.0000   1.0000   1.0000   1.0000   1.0000
     1.0000   1.0000   1.0000   1.0000   1.0000   1.0000   1.0000   1.0000
     0.0000   0.0000   0.0000   0.0000

          k = 0.2857 0.2857 0.4286 (  7374 PWs)   bands (ev):

   -16.9785 -16.9068 -16.7926 -16.7720  -7.6958  -7.6832  -7.5068  -7.4252
    -6.7968  -6.7522  -6.6424  -6.5902  -2.3659  -2.3414  -2.0271  -2.0134
     4.6018   5.1791   5.9118   6.0834

     occupation numbers 
     1.0000   1.0000   1.0000   1.0000   1.0000   1.0000   1.0000   1.0000
     1.0000   1.0000   1.0000   1.0000   1.0000   1.0000   1.0000   1.0000
     0.0000   0.0000   0.0000   0.0000

          k = 0.2857 0.4286 0.4286 (  7387 PWs)   bands (ev):

   -16.9310 -16.8974 -16.8158 -16.8015  -7.7096  -7.7033  -7.5747  -7.5404
    -6.7126  -6.6820  -6.6178  -6.5849  -2.3149  -2.3029  -2.0337  -2.0303
     4.9476   5.3400   5.4964   5.7080

     occupation numbers 
     1.0000   1.0000   1.0000   1.0000   1.0000   1.0000   1.0000   1.0000
     1.0000   1.0000   1.0000   1.0000   1.0000   1.0000   1.0000   1.0000
     0.0000   0.0000   0.0000   0.0000

          k = 0.4286 0.4286 0.4286 (  7409 PWs)   bands (ev):

   -16.8966 -16.8779 -16.8379 -16.8270  -7.7340  -7.7315  -7.6654  -7.6488
    -6.6286  -6.5985  -6.5900  -6.5592  -2.2266  -2.2192  -2.0661  -2.0647
     5.0948   5.3066   5.3767   5.3850

     occupation numbers 
     1.0000   1.0000   1.0000   1.0000   1.0000   1.0000   1.0000   1.0000
     1.0000   1.0000   1.0000   1.0000   1.0000   1.0000   1.0000   1.0000
     0.0000   0.0000   0.0000   0.0000

          k = 0.0000 0.2857 0.1429 (  7377 PWs)   bands (ev):

   -17.1723 -16.8532 -16.7311 -16.6987  -7.6567  -7.6288  -7.4568  -7.0296
    -6.8995  -6.8531  -6.7851  -6.6501  -2.3847  -2.3584  -2.0744  -1.9260
     3.2636   5.0998   5.8543   6.0349

     occupation numbers 
     1.0000   1.0000   1.0000   1.0000   1.0000   1.0000   1.0000   1.0000
     1.0000   1.0000   1.0000   1.0000   1.0000   1.0000   1.0000   1.0000
     0.0000   0.0000   0.0000   0.0000

          k = 0.0000 0.4286 0.1429 (  7375 PWs)   bands (ev):

   -17.0721 -16.9581 -16.7202 -16.7079  -7.6309  -7.6129  -7.3243  -7.1685
    -6.9072  -6.8557  -6.7821  -6.7084  -2.4259  -2.4112  -2.0383  -1.9878
     3.9586   4.6569   6.3331   6.4531

     occupation numbers 
     1.0000   1.0000   1.0000   1.0000   1.0000   1.0000   1.0000   1.0000
     1.0000   1.0000   1.0000   1.0000   1.0000   1.0000   1.0000   1.0000
     0.0000   0.0000   0.0000   0.0000

          k = 0.0000 0.4286 0.2857 (  7405 PWs)   bands (ev):

   -17.0269 -16.9338 -16.7600 -16.7368  -7.6314  -7.6127  -7.3697  -7.2496
    -6.9036  -6.8428  -6.7442  -6.6808  -2.4277  -2.4089  -2.0323  -1.9987
     4.3212   4.9790   6.1777   6.6240

     occupation numbers 
     1.0000   1.0000   1.0000   1.0000   1.0000   1.0000   1.0000   1.0000
     1.0000   1.0000   1.0000   1.0000   1.0000   1.0000   1.0000   1.0000
     0.0000   0.0000   0.0000   0.0000

          k =-0.1429 0.4286 0.2857 (  7389 PWs)   bands (ev):

   -17.0140 -16.9260 -16.7684 -16.7468  -7.6576  -7.6375  -7.4124  -7.3013
    -6.8761  -6.8269  -6.6987  -6.6419  -2.4113  -2.3888  -2.0288  -2.0017
     4.3914   5.0321   6.1372   6.5503

     occupation numbers 
     1.0000   1.0000   1.0000   1.0000   1.0000   1.0000   1.0000   1.0000
     1.0000   1.0000   1.0000   1.0000   1.0000   1.0000   1.0000   1.0000
     0.0000   0.0000   0.0000   0.0000

     the Fermi energy is    -0.0989 ev

!    total energy              =     -96.22581379 Ry
     estimated scf accuracy    <          3.3E-11 Ry
     smearing contrib. (-TS)   =       0.00000000 Ry
     internal energy E=F+TS    =     -96.22581379 Ry

     The total energy is F=E-TS. E is the sum of the following terms:
     one-electron contribution =     -60.90741213 Ry
     hartree contribution      =      39.68270870 Ry
     xc contribution           =     -31.64186019 Ry
     ewald contribution        =     -43.35925018 Ry

     convergence has been achieved in   8 iterations

     Forces acting on atoms (cartesian axes, Ry/au):

     atom    1 type  2   force =    -0.00352456   -0.00352456   -0.00352456
     atom    2 type  2   force =     0.00352456    0.00352456   -0.00352456
     atom    3 type  2   force =     0.00352456   -0.00352456    0.00352456
     atom    4 type  2   force =    -0.00352456    0.00352456    0.00352456
     atom    5 type  1   force =    -0.00209338    0.00394744    0.00232712
     atom    6 type  1   force =     0.00209338   -0.00394744    0.00232712
     atom    7 type  1   force =     0.00209338    0.00394744   -0.00232712
     atom    8 type  1   force =    -0.00209338   -0.00394744   -0.00232712
     atom    9 type  1   force =     0.00232712   -0.00209338    0.00394744
     atom   10 type  1   force =     0.00232712    0.00209338   -0.00394744
     atom   11 type  1   force =    -0.00232712    0.00209338    0.00394744
     atom   12 type  1   force =    -0.00232712   -0.00209338   -0.00394744
     atom   13 type  1   force =     0.00394744    0.00232712   -0.00209338
     atom   14 type  1   force =    -0.00394744    0.00232712    0.00209338
     atom   15 type  1   force =     0.00394744   -0.00232712    0.00209338
     atom   16 type  1   force =    -0.00394744   -0.00232712   -0.00209338
     The non-local contrib.  to forces
     atom    1 type  2   force =     0.68274560    0.68274560    0.68274560
     atom    2 type  2   force =    -0.68274560   -0.68274560    0.68274560
     atom    3 type  2   force =    -0.68274560    0.68274560   -0.68274560
     atom    4 type  2   force =     0.68274560   -0.68274560   -0.68274560
     atom    5 type  1   force =    -0.08223460   -0.01363395    0.04333200
     atom    6 type  1   force =     0.08223460    0.01363395    0.04333200
     atom    7 type  1   force =     0.08223460   -0.01363395   -0.04333200
     atom    8 type  1   force =    -0.08223460    0.01363395   -0.04333200
     atom    9 type  1   force =     0.04333200   -0.08223460   -0.01363395
     atom   10 type  1   force =     0.04333200    0.08223460    0.01363395
     atom   11 type  1   force =    -0.04333200    0.08223460   -0.01363395
     atom   12 type  1   force =    -0.04333200   -0.08223460    0.01363395
     atom   13 type  1   force =    -0.01363395    0.04333200   -0.08223460
     atom   14 type  1   force =     0.01363395    0.04333200    0.08223460
     atom   15 type  1   force =    -0.01363395   -0.04333200    0.08223460
     atom   16 type  1   force =     0.01363395   -0.04333200   -0.08223460
     The ionic contribution  to forces
     atom    1 type  2   force =    -1.11796883   -1.11796883   -1.11796883
     atom    2 type  2   force =     1.11796883    1.11796883   -1.11796883
     atom    3 type  2   force =     1.11796883   -1.11796883    1.11796883
     atom    4 type  2   force =    -1.11796883    1.11796883    1.11796883
     atom    5 type  1   force =     2.18133176    0.38796331   -1.01378248
     atom    6 type  1   force =    -2.18133176   -0.38796331   -1.01378248
     atom    7 type  1   force =    -2.18133176    0.38796331    1.01378248
     atom    8 type  1   force =     2.18133176   -0.38796331    1.01378248
     atom    9 type  1   force =    -1.01378248    2.18133176    0.38796331
     atom   10 type  1   force =    -1.01378248   -2.18133176   -0.38796331
     atom   11 type  1   force =     1.01378248   -2.18133176    0.38796331
     atom   12 type  1   force =     1.01378248    2.18133176   -0.38796331
     atom   13 type  1   force =     0.38796331   -1.01378248    2.18133176
     atom   14 type  1   force =    -0.38796331   -1.01378248   -2.18133176
     atom   15 type  1   force =     0.38796331    1.01378248   -2.18133176
     atom   16 type  1   force =    -0.38796331    1.01378248    2.18133176
     The local contribution  to forces
     atom    1 type  2   force =     0.44127761    0.44127761    0.44127761
     atom    2 type  2   force =    -0.44127761   -0.44127761    0.44127761
     atom    3 type  2   force =    -0.44127761    0.44127761   -0.44127761
     atom    4 type  2   force =     0.44127761   -0.44127761   -0.44127761
     atom    5 type  1   force =    -2.10119062   -0.37038196    0.97277763
     atom    6 type  1   force =     2.10119062    0.37038196    0.97277763
     atom    7 type  1   force =     2.10119062   -0.37038196   -0.97277763
     atom    8 type  1   force =    -2.10119062    0.37038196   -0.97277763
     atom    9 type  1   force =     0.97277763   -2.10119062   -0.37038196
     atom   10 type  1   force =     0.97277763    2.10119062    0.37038196
     atom   11 type  1   force =    -0.97277763    2.10119062   -0.37038196
     atom   12 type  1   force =    -0.97277763   -2.10119062    0.37038196
     atom   13 type  1   force =    -0.37038196    0.97277763   -2.10119062
     atom   14 type  1   force =     0.37038196    0.97277763    2.10119062
     atom   15 type  1   force =    -0.37038196   -0.97277763    2.10119062
     atom   16 type  1   force =     0.37038196   -0.97277763   -2.10119062
     The core correction contribution to forces
     atom    1 type  2   force =    -0.00957834   -0.00957834   -0.00957834
     atom    2 type  2   force =     0.00957834    0.00957834   -0.00957834
     atom    3 type  2   force =     0.00957834   -0.00957834    0.00957834
     atom    4 type  2   force =    -0.00957834    0.00957834    0.00957834
     atom    5 type  1   force =     0.00000000    0.00000000    0.00000000
     atom    6 type  1   force =     0.00000000    0.00000000    0.00000000
     atom    7 type  1   force =     0.00000000    0.00000000    0.00000000
     atom    8 type  1   force =     0.00000000    0.00000000    0.00000000
     atom    9 type  1   force =     0.00000000    0.00000000    0.00000000
     atom   10 type  1   force =     0.00000000    0.00000000    0.00000000
     atom   11 type  1   force =     0.00000000    0.00000000    0.00000000
     atom   12 type  1   force =     0.00000000    0.00000000    0.00000000
     atom   13 type  1   force =     0.00000000    0.00000000    0.00000000
     atom   14 type  1   force =     0.00000000    0.00000000    0.00000000
     atom   15 type  1   force =     0.00000000    0.00000000    0.00000000
     atom   16 type  1   force =     0.00000000    0.00000000    0.00000000
     The Hubbard contrib.    to forces
     atom    1 type  2   force =     0.00000000    0.00000000    0.00000000
     atom    2 type  2   force =     0.00000000    0.00000000    0.00000000
     atom    3 type  2   force =     0.00000000    0.00000000    0.00000000
     atom    4 type  2   force =     0.00000000    0.00000000    0.00000000
     atom    5 type  1   force =     0.00000000    0.00000000    0.00000000
     atom    6 type  1   force =     0.00000000    0.00000000    0.00000000
     atom    7 type  1   force =     0.00000000    0.00000000    0.00000000
     atom    8 type  1   force =     0.00000000    0.00000000    0.00000000
     atom    9 type  1   force =     0.00000000    0.00000000    0.00000000
     atom   10 type  1   force =     0.00000000    0.00000000    0.00000000
     atom   11 type  1   force =     0.00000000    0.00000000    0.00000000
     atom   12 type  1   force =     0.00000000    0.00000000    0.00000000
     atom   13 type  1   force =     0.00000000    0.00000000    0.00000000
     atom   14 type  1   force =     0.00000000    0.00000000    0.00000000
     atom   15 type  1   force =     0.00000000    0.00000000    0.00000000
     atom   16 type  1   force =     0.00000000    0.00000000    0.00000000
     The SCF correction term to forces
     atom    1 type  2   force =    -0.00000061   -0.00000061   -0.00000061
     atom    2 type  2   force =     0.00000061    0.00000061   -0.00000061
     atom    3 type  2   force =     0.00000061   -0.00000061    0.00000061
     atom    4 type  2   force =    -0.00000061    0.00000061    0.00000061
     atom    5 type  1   force =     0.00000007    0.00000005   -0.00000003
     atom    6 type  1   force =    -0.00000007   -0.00000005   -0.00000003
     atom    7 type  1   force =    -0.00000007    0.00000005    0.00000003
     atom    8 type  1   force =     0.00000007   -0.00000005    0.00000003
     atom    9 type  1   force =    -0.00000003    0.00000007    0.00000005
     atom   10 type  1   force =    -0.00000003   -0.00000007   -0.00000005
     atom   11 type  1   force =     0.00000003   -0.00000007    0.00000005
     atom   12 type  1   force =     0.00000003    0.00000007   -0.00000005
     atom   13 type  1   force =     0.00000005   -0.00000003    0.00000007
     atom   14 type  1   force =    -0.00000005   -0.00000003   -0.00000007
     atom   15 type  1   force =     0.00000005    0.00000003   -0.00000007
     atom   16 type  1   force =    -0.00000005    0.00000003    0.00000007

     Total force =     0.021299     Total SCF correction =     0.000002


     Computing stress (Cartesian axis) and pressure

          total   stress  (Ry/bohr**3)                   (kbar)     P=       -4.27
  -0.00002899   0.00000000   0.00000000           -4.27        0.00        0.00
   0.00000000  -0.00002899   0.00000000            0.00       -4.27        0.00
   0.00000000   0.00000000  -0.00002899            0.00        0.00       -4.27

[...]
     4.9595   5.3895   5.4271   5.6633

     occupation numbers 
     1.0000   1.0000   1.0000   1.0000   1.0000   1.0000   1.0000   1.0000
     1.0000   1.0000   1.0000   1.0000   1.0000   1.0000   1.0000   1.0000
     0.0000   0.0000   0.0000   0.0000

          k = 0.4286 0.4286 0.4286 (  7409 PWs)   bands (ev):

   -16.9359 -16.9164 -16.8554 -16.8424  -7.7059  -7.7011  -7.6251  -7.6054
    -6.5178  -6.4841  -6.4534  -6.4194  -2.3854  -2.3794  -2.1591  -2.1580
     5.0915   5.3266   5.3398   5.3424

     occupation numbers 
     1.0000   1.0000   1.0000   1.0000   1.0000   1.0000   1.0000   1.0000
     1.0000   1.0000   1.0000   1.0000   1.0000   1.0000   1.0000   1.0000
     0.0000   0.0000   0.0000   0.0000

          k = 0.0000 0.2857 0.1429 (  7377 PWs)   bands (ev):

   -17.2329 -16.8954 -16.7385 -16.6929  -7.6210  -7.5929  -7.4099  -6.9598
    -6.8485  -6.7605  -6.6897  -6.4906  -2.5804  -2.5526  -2.1586  -1.9265
     3.3337   5.3724   6.2971   6.4231

     occupation numbers 
     1.0000   1.0000   1.0000   1.0000   1.0000   1.0000   1.0000   1.0000
     1.0000   1.0000   1.0000   1.0000   1.0000   1.0000   1.0000   1.0000
     0.0000   0.0000   0.0000   0.0000

          k = 0.0000 0.4286 0.1429 (  7375 PWs)   bands (ev):

   -17.1282 -17.0080 -16.7223 -16.7048  -7.6041  -7.5862  -7.2698  -7.1053
    -6.8629  -6.8037  -6.6245  -6.5413  -2.6223  -2.6078  -2.0826  -2.0034
     4.0414   4.7882   6.7263   6.7588

     occupation numbers 
     1.0000   1.0000   1.0000   1.0000   1.0000   1.0000   1.0000   1.0000
     1.0000   1.0000   1.0000   1.0000   1.0000   1.0000   1.0000   1.0000
     0.0000   0.0000   0.0000   0.0000

          k = 0.0000 0.4286 0.2857 (  7405 PWs)   bands (ev):

   -17.0818 -16.9857 -16.7614 -16.7349  -7.6113  -7.5893  -7.3145  -7.1804
    -6.8469  -6.7769  -6.5967  -6.5190  -2.6218  -2.6050  -2.0683  -2.0160
     4.3773   5.0556   6.3053   6.7029

     occupation numbers 
     1.0000   1.0000   1.0000   1.0000   1.0000   1.0000   1.0000   1.0000
     1.0000   1.0000   1.0000   1.0000   1.0000   1.0000   1.0000   1.0000
     0.0000   0.0000   0.0000   0.0000

          k =-0.1429 0.4286 0.2857 (  7389 PWs)   bands (ev):

   -17.0676 -16.9765 -16.7723 -16.7456  -7.6349  -7.6144  -7.3624  -7.2379
    -6.8091  -6.7401  -6.5628  -6.4849  -2.6023  -2.5825  -2.0709  -2.0261
     4.4414   5.1015   6.1855   6.4882

     occupation numbers 
     1.0000   1.0000   1.0000   1.0000   1.0000   1.0000   1.0000   1.0000
     1.0000   1.0000   1.0000   1.0000   1.0000   1.0000   1.0000   1.0000
     0.0000   0.0000   0.0000   0.0000

     the Fermi energy is     0.0094 ev

!    total energy              =     -96.23525224 Ry
     estimated scf accuracy    <          2.5E-12 Ry
     smearing contrib. (-TS)   =       0.00000000 Ry
     internal energy E=F+TS    =     -96.23525224 Ry

     The total energy is F=E-TS. E is the sum of the following terms:
     one-electron contribution =     -62.44528186 Ry
     hartree contribution      =      40.47050902 Ry
     xc contribution           =     -31.66474255 Ry
     ewald contribution        =     -42.59573686 Ry

     convergence has been achieved in   6 iterations

     Forces acting on atoms (cartesian axes, Ry/au):

     atom    1 type  2   force =    -0.00000379   -0.00000379   -0.00000379
     atom    2 type  2   force =     0.00000379    0.00000379   -0.00000379
     atom    3 type  2   force =     0.00000379   -0.00000379    0.00000379
     atom    4 type  2   force =    -0.00000379    0.00000379    0.00000379
     atom    5 type  1   force =     0.00000475    0.00000063   -0.00000446
     atom    6 type  1   force =    -0.00000475   -0.00000063   -0.00000446
     atom    7 type  1   force =    -0.00000475    0.00000063    0.00000446
     atom    8 type  1   force =     0.00000475   -0.00000063    0.00000446
     atom    9 type  1   force =    -0.00000446    0.00000475    0.00000063
     atom   10 type  1   force =    -0.00000446   -0.00000475   -0.00000063
     atom   11 type  1   force =     0.00000446   -0.00000475    0.00000063
     atom   12 type  1   force =     0.00000446    0.00000475   -0.00000063
     atom   13 type  1   force =     0.00000063   -0.00000446    0.00000475
     atom   14 type  1   force =    -0.00000063   -0.00000446   -0.00000475
     atom   15 type  1   force =     0.00000063    0.00000446   -0.00000475
     atom   16 type  1   force =    -0.00000063    0.00000446    0.00000475
     The non-local contrib.  to forces
     atom    1 type  2   force =     0.70155446    0.70155446    0.70155446
     atom    2 type  2   force =    -0.70155446   -0.70155446    0.70155446
     atom    3 type  2   force =    -0.70155446    0.70155446   -0.70155446
     atom    4 type  2   force =     0.70155446   -0.70155446   -0.70155446
     atom    5 type  1   force =    -0.07201066   -0.03373157    0.04924082
     atom    6 type  1   force =     0.07201066    0.03373157    0.04924082
     atom    7 type  1   force =     0.07201066   -0.03373157   -0.04924082
     atom    8 type  1   force =    -0.07201066    0.03373157   -0.04924082
     atom    9 type  1   force =     0.04924082   -0.07201066   -0.03373157
     atom   10 type  1   force =     0.04924082    0.07201066    0.03373157
     atom   11 type  1   force =    -0.04924082    0.07201066   -0.03373157
     atom   12 type  1   force =    -0.04924082   -0.07201066    0.03373157
     atom   13 type  1   force =    -0.03373157    0.04924082   -0.07201066
     atom   14 type  1   force =     0.03373157    0.04924082    0.07201066
     atom   15 type  1   force =    -0.03373157   -0.04924082    0.07201066
     atom   16 type  1   force =     0.03373157   -0.04924082   -0.07201066
     The ionic contribution  to forces
     atom    1 type  2   force =    -1.12571322   -1.12571322   -1.12571322
     atom    2 type  2   force =     1.12571322    1.12571322   -1.12571322
     atom    3 type  2   force =     1.12571322   -1.12571322    1.12571322
     atom    4 type  2   force =    -1.12571322    1.12571322    1.12571322
     atom    5 type  1   force =     1.86142870    0.96859605   -1.17362020
     atom    6 type  1   force =    -1.86142870   -0.96859605   -1.17362020
     atom    7 type  1   force =    -1.86142870    0.96859605    1.17362020
     atom    8 type  1   force =     1.86142870   -0.96859605    1.17362020
     atom    9 type  1   force =    -1.17362020    1.86142870    0.96859605
     atom   10 type  1   force =    -1.17362020   -1.86142870   -0.96859605
     atom   11 type  1   force =     1.17362020   -1.86142870    0.96859605
     atom   12 type  1   force =     1.17362020    1.86142870   -0.96859605
     atom   13 type  1   force =     0.96859605   -1.17362020    1.86142870
     atom   14 type  1   force =    -0.96859605   -1.17362020   -1.86142870
     atom   15 type  1   force =     0.96859605    1.17362020   -1.86142870
     atom   16 type  1   force =    -0.96859605    1.17362020    1.86142870
     The local contribution  to forces
     atom    1 type  2   force =     0.43392900    0.43392900    0.43392900
     atom    2 type  2   force =    -0.43392900   -0.43392900    0.43392900
     atom    3 type  2   force =    -0.43392900    0.43392900   -0.43392900
     atom    4 type  2   force =     0.43392900   -0.43392900   -0.43392900
     atom    5 type  1   force =    -1.78941337   -0.93486390    1.12437490
     atom    6 type  1   force =     1.78941337    0.93486390    1.12437490
     atom    7 type  1   force =     1.78941337   -0.93486390   -1.12437490
     atom    8 type  1   force =    -1.78941337    0.93486390   -1.12437490
     atom    9 type  1   force =     1.12437490   -1.78941337   -0.93486390
     atom   10 type  1   force =     1.12437490    1.78941337    0.93486390
     atom   11 type  1   force =    -1.12437490    1.78941337   -0.93486390
     atom   12 type  1   force =    -1.12437490   -1.78941337    0.93486390
     atom   13 type  1   force =    -0.93486390    1.12437490   -1.78941337
     atom   14 type  1   force =     0.93486390    1.12437490    1.78941337
     atom   15 type  1   force =    -0.93486390   -1.12437490    1.78941337
     atom   16 type  1   force =     0.93486390   -1.12437490   -1.78941337
     The core correction contribution to forces
     atom    1 type  2   force =    -0.00977454   -0.00977454   -0.00977454
     atom    2 type  2   force =     0.00977454    0.00977454   -0.00977454
     atom    3 type  2   force =     0.00977454   -0.00977454    0.00977454
     atom    4 type  2   force =    -0.00977454    0.00977454    0.00977454
     atom    5 type  1   force =     0.00000000    0.00000000    0.00000000
     atom    6 type  1   force =     0.00000000    0.00000000    0.00000000
     atom    7 type  1   force =     0.00000000    0.00000000    0.00000000
     atom    8 type  1   force =     0.00000000    0.00000000    0.00000000
     atom    9 type  1   force =     0.00000000    0.00000000    0.00000000
     atom   10 type  1   force =     0.00000000    0.00000000    0.00000000
     atom   11 type  1   force =     0.00000000    0.00000000    0.00000000
     atom   12 type  1   force =     0.00000000    0.00000000    0.00000000
     atom   13 type  1   force =     0.00000000    0.00000000    0.00000000
     atom   14 type  1   force =     0.00000000    0.00000000    0.00000000
     atom   15 type  1   force =     0.00000000    0.00000000    0.00000000
     atom   16 type  1   force =     0.00000000    0.00000000    0.00000000
     The Hubbard contrib.    to forces
     atom    1 type  2   force =     0.00000000    0.00000000    0.00000000
     atom    2 type  2   force =     0.00000000    0.00000000    0.00000000
     atom    3 type  2   force =     0.00000000    0.00000000    0.00000000
     atom    4 type  2   force =     0.00000000    0.00000000    0.00000000
     atom    5 type  1   force =     0.00000000    0.00000000    0.00000000
     atom    6 type  1   force =     0.00000000    0.00000000    0.00000000
     atom    7 type  1   force =     0.00000000    0.00000000    0.00000000
     atom    8 type  1   force =     0.00000000    0.00000000    0.00000000
     atom    9 type  1   force =     0.00000000    0.00000000    0.00000000
     atom   10 type  1   force =     0.00000000    0.00000000    0.00000000
     atom   11 type  1   force =     0.00000000    0.00000000    0.00000000
     atom   12 type  1   force =     0.00000000    0.00000000    0.00000000
     atom   13 type  1   force =     0.00000000    0.00000000    0.00000000
     atom   14 type  1   force =     0.00000000    0.00000000    0.00000000
     atom   15 type  1   force =     0.00000000    0.00000000    0.00000000
     atom   16 type  1   force =     0.00000000    0.00000000    0.00000000
     The SCF correction term to forces
     atom    1 type  2   force =     0.00000050    0.00000050    0.00000050
     atom    2 type  2   force =    -0.00000050   -0.00000050    0.00000050
     atom    3 type  2   force =    -0.00000050    0.00000050   -0.00000050
     atom    4 type  2   force =     0.00000050   -0.00000050   -0.00000050
     atom    5 type  1   force =     0.00000008    0.00000005    0.00000003
     atom    6 type  1   force =    -0.00000008   -0.00000005    0.00000003
     atom    7 type  1   force =    -0.00000008    0.00000005   -0.00000003
     atom    8 type  1   force =     0.00000008   -0.00000005   -0.00000003
     atom    9 type  1   force =     0.00000003    0.00000008    0.00000005
     atom   10 type  1   force =     0.00000003   -0.00000008   -0.00000005
     atom   11 type  1   force =    -0.00000003   -0.00000008    0.00000005
     atom   12 type  1   force =    -0.00000003    0.00000008   -0.00000005
     atom   13 type  1   force =     0.00000005    0.00000003    0.00000008
     atom   14 type  1   force =    -0.00000005    0.00000003   -0.00000008
     atom   15 type  1   force =     0.00000005   -0.00000003   -0.00000008
     atom   16 type  1   force =    -0.00000005   -0.00000003    0.00000008

     Total force =     0.000026     Total SCF correction =     0.000002


     Computing stress (Cartesian axis) and pressure

          total   stress  (Ry/bohr**3)                   (kbar)     P=       -0.33
  -0.00000226   0.00000000   0.00000000           -0.33        0.00        0.00
   0.00000000  -0.00000226   0.00000000            0.00       -0.33        0.00
   0.00000000   0.00000000  -0.00000226            0.00        0.00       -0.33

     kinetic stress (kbar)   6350.70      0.00      0.00
                                0.00   6350.70      0.00
                                0.00      0.00   6350.70

     local   stress (kbar)  -4698.99      0.00      0.00
                                0.00  -4698.99      0.00
                                0.00      0.00  -4698.99

     nonloc. stress (kbar)    -26.53      0.00      0.00
                                0.00    -26.53      0.00
                                0.00      0.00    -26.53

     hartree stress (kbar)   2109.61      0.00      0.00
                                0.00   2109.61     -0.00
                                0.00     -0.00   2109.61

     exc-cor stress (kbar)  -1086.22     -0.00     -0.00
                               -0.00  -1086.22     -0.00
                               -0.00     -0.00  -1086.22

     corecor stress (kbar)   -428.51      0.00      0.00
                                0.00   -428.51      0.00
                                0.00      0.00   -428.51

     ewald   stress (kbar)  -2220.39     -0.00     -0.00
                               -0.00  -2220.39     -0.00
                               -0.00     -0.00  -2220.39

     hubbard stress (kbar)      0.00      0.00      0.00
                                0.00      0.00      0.00
                                0.00      0.00      0.00

     DFT-D   stress (kbar)      0.00      0.00      0.00
                                0.00      0.00      0.00
                                0.00      0.00      0.00

     XDM     stress (kbar)      0.00      0.00      0.00
                                0.00      0.00      0.00
                                0.00      0.00      0.00

     dft-nl  stress (kbar)      0.00      0.00      0.00
                                0.00      0.00      0.00
                                0.00      0.00      0.00

     TS-vdW  stress (kbar)      0.00      0.00      0.00
                                0.00      0.00      0.00
                                0.00      0.00      0.00

     MDB     stress (kbar)      0.00      0.00      0.00
                                0.00      0.00      0.00
                                0.00      0.00      0.00

     3D-RISM stress (kbar)      0.00      0.00      0.00
                                0.00      0.00      0.00
                                0.00      0.00      0.00

     Energy error            =      2.0E-07 Ry
     Gradient error          =      4.8E-06 Ry/Bohr

     bfgs converged in  31 scf cycles and  30 bfgs steps
     (criteria: energy <  1.6E-04 Ry, force <  1.0E-04 Ry/Bohr)

     End of BFGS Geometry Optimization

     Final energy             =     -96.2352522446 Ry

     File ./out/AC_Ph_1.bfgs deleted, as requested
Begin final coordinates

ATOMIC_POSITIONS (crystal)
N             0.1963349497        0.1963349497        0.1963349497
N             0.3036650503        0.8036650503        0.6963349497
N             0.8036650503        0.6963349497        0.3036650503
N             0.6963349497        0.3036650503        0.8036650503
H             0.3503476091        0.2702379449        0.0959412349
H             0.1496523909        0.7297620551        0.5959412349
H             0.6496523909        0.7702379449        0.4040587651
H             0.8503476091        0.2297620551        0.9040587651
H             0.0959412349        0.3503476091        0.2702379449
H             0.5959412349        0.1496523909        0.7297620551
H             0.4040587651        0.6496523909        0.7702379449
H             0.9040587651        0.8503476091        0.2297620551
H             0.2702379449        0.0959412349        0.3503476091
H             0.7297620551        0.5959412349        0.1496523909
H             0.7702379449        0.4040587651        0.6496523909
H             0.2297620551        0.9040587651        0.8503476091
End final coordinates



     Writing all to output data dir ./out/AC_Ph_1.save/

     init_run     :      2.37s CPU      2.45s WALL (       1 calls)
     electrons    :    790.91s CPU    801.98s WALL (      31 calls)
     update_pot   :      7.36s CPU      7.46s WALL (      30 calls)
     forces       :     25.81s CPU     26.07s WALL (      31 calls)
     stress       :     35.09s CPU     35.25s WALL (      31 calls)

     Called by init_run:
     wfcinit      :      1.27s CPU      1.28s WALL (       1 calls)
     wfcinit:atom :      0.02s CPU      0.02s WALL (      24 calls)
     wfcinit:wfcr :      1.20s CPU      1.21s WALL (      24 calls)
     potinit      :      0.22s CPU      0.24s WALL (       1 calls)
     hinit0       :      0.49s CPU      0.50s WALL (       1 calls)

     Called by electrons:
     c_bands      :    656.14s CPU    664.14s WALL (     263 calls)
     sum_band     :    107.30s CPU    109.09s WALL (     263 calls)
     v_of_rho     :     14.36s CPU     14.97s WALL (     285 calls)
     v_h          :      0.93s CPU      0.99s WALL (     285 calls)
     v_xc         :     16.36s CPU     17.02s WALL (     347 calls)
     newd         :     12.32s CPU     12.46s WALL (     285 calls)
     mix_rho      :      1.84s CPU      1.94s WALL (     263 calls)

     Called by c_bands:
     init_us_2    :      6.98s CPU      7.04s WALL (   14136 calls)
     init_us_2:cp :      6.91s CPU      6.99s WALL (   14136 calls)
     cegterg      :    643.26s CPU    651.05s WALL (    6312 calls)

     Called by sum_band:
     sum_band:wei :      0.04s CPU      0.04s WALL (     263 calls)
     sum_band:loo :     93.53s CPU     94.99s WALL (     263 calls)
     sum_band:buf :      0.75s CPU      0.76s WALL (    6312 calls)
     sum_band:ini :      3.08s CPU      3.09s WALL (    6312 calls)
     sum_band:cal :     30.82s CPU     31.35s WALL (    6312 calls)
     sum_band:bec :      0.22s CPU      0.22s WALL (    6312 calls)
     addusdens    :     10.75s CPU     10.84s WALL (     263 calls)
     addusd:skk   :      0.66s CPU      0.67s WALL (     526 calls)
     addusd:dgemm :      5.69s CPU      5.72s WALL (     526 calls)
     addusd:qvan2 :      3.12s CPU      3.14s WALL (     526 calls)

     Called by *egterg:
     cdiaghg      :     20.18s CPU     20.25s WALL (   17844 calls)
     cegterg:over :     70.60s CPU     71.30s WALL (   12468 calls)
     cegterg:upda :     18.37s CPU     18.41s WALL (   12468 calls)
     cegterg:last :     40.83s CPU     40.91s WALL (   11859 calls)
     h_psi        :    412.43s CPU    419.12s WALL (   18804 calls)
     s_psi        :     41.14s CPU     41.27s WALL (   18804 calls)
     g_psi        :      2.89s CPU      2.90s WALL (   12468 calls)

     Called by h_psi:
     h_psi:calbec :     78.81s CPU     80.46s WALL (   18804 calls)
     vloc_psi     :    290.46s CPU    295.36s WALL (   18804 calls)
     add_vuspsi   :     41.27s CPU     41.41s WALL (   18804 calls)

     General routines
     calbec       :    129.75s CPU    132.13s WALL (   28836 calls)
     fft          :     11.09s CPU     11.83s WALL (    4457 calls)
     ffts         :      0.48s CPU      0.51s WALL (     548 calls)
     fftw         :    318.25s CPU    323.00s WALL (  768544 calls)
     interpolate  :      1.02s CPU      1.08s WALL (     285 calls)

     Parallel routines

     PWSCF        :  14m25.26s CPU  14m37.23s WALL


   This run was terminated on:   5:37:46  14Dec2022            

=------------------------------------------------------------------------------=
   JOB DONE.
=------------------------------------------------------------------------------=
