
     Program PWSCF v.7.1 starts on 14Dec2022 at  3:11:35 

     This program is part of the open-source Quantum ESPRESSO suite
     for quantum simulation of materials; please cite
         "P. Giannozzi et al., J. Phys.:Condens. Matter 21 395502 (2009);
         "P. Giannozzi et al., J. Phys.:Condens. Matter 29 465901 (2017);
         "P. Giannozzi et al., J. Chem. Phys. 152 154105 (2020);
          URL http://www.quantum-espresso.org", 
     in publications or presentations arising from this work. More details at
     http://www.quantum-espresso.org/quote

     Parallel version (MPI), running on    14 processors

     MPI processes distributed on     1 nodes
     24306 MiB available memory on the printing compute node when the environment starts

     Reading input from pwband.in

     Current dimensions of program PWSCF are:
     Max number of different atomic species (ntypx) = 10
     Max number of k-points (npk) =  40000
     Max angular momentum in pseudopotentials (lmaxx) =  4

     Atomic positions and unit cell read from directory:
     ./out/AC_Ph_1.save/

     Message from routine setup:
     using ibrav=0 with symmetry is DISCOURAGED, use correct ibrav instead

     R & G space division:  proc/nbgrp/npool/nimage =      14
     Subspace diagonalization in iterative solution of the eigenvalue problem:
     a serial algorithm will be used


     Parallelization info
     --------------------
     sticks:   dense  smooth     PW     G-vecs:    dense   smooth      PW
     Min         262     130     36                11930     4206     644
     Max         263     131     37                11933     4207     647
     Sum        3673    1829    517               167037    58893    9045

     Using Slab Decomposition



     bravais-lattice index     =            0
     lattice parameter (alat)  =       9.7982  a.u.
     unit-cell volume          =     940.6821 (a.u.)^3
     number of atoms/cell      =           16
     number of atomic types    =            2
     number of electrons       =        32.00
     number of Kohn-Sham states=           20
     kinetic-energy cutoff     =      60.0000  Ry
     charge density cutoff     =     480.0000  Ry
     Exchange-correlation= PBE
                           (   1   4   3   4   0   0   0)

     celldm(1)=   9.798230  celldm(2)=   0.000000  celldm(3)=   0.000000
     celldm(4)=   0.000000  celldm(5)=   0.000000  celldm(6)=   0.000000

     crystal axes: (cart. coord. in units of alat)
               a(1) = (   1.000000   0.000000   0.000000 )  
               a(2) = (   0.000000   1.000000   0.000000 )  
               a(3) = (   0.000000   0.000000   1.000000 )  

     reciprocal axes: (cart. coord. in units 2 pi/alat)
               b(1) = (  1.000000  0.000000  0.000000 )  
               b(2) = (  0.000000  1.000000  0.000000 )  
               b(3) = (  0.000000  0.000000  1.000000 )  


     PseudoPot. # 1 for H  read from file:
     ./pseudo/H.pbe-rrkjus_psl.1.0.0.UPF
     MD5 check sum: 3f4114867bd07edc7f1424d066fc1888
     Pseudo is Ultrasoft, Zval =  1.0
     Generated using &quot;atomic&quot; code by A. Dal Corso  v.6.3MaX
     Using radial grid of  929 points,  2 beta functions with: 
                l(1) =   0
                l(2) =   0
     Q(r) pseudized with 0 coefficients 


     PseudoPot. # 2 for N  read from file:
     ./pseudo/N.pbe-n-rrkjus_psl.1.0.0.UPF
     MD5 check sum: ada94e3ed05223de5319d0572dc76806
     Pseudo is Ultrasoft + core correction, Zval =  5.0
     Generated using &quot;atomic&quot; code by A. Dal Corso  v.6.3MaX
     Using radial grid of 1085 points,  4 beta functions with: 
                l(1) =   0
                l(2) =   0
                l(3) =   1
                l(4) =   1
     Q(r) pseudized with 0 coefficients 


     atomic species   valence    mass     pseudopotential
        H              1.00     1.00794     H ( 1.00)
        N              5.00    14.00670     N ( 1.00)

     12 Sym. Ops. (no inversion) found ( 9 have fractional translation)


                                    s                        frac. trans.

      isym =  1     identity                                     

 cryst.   s( 1) = (     1          0          0      )
                  (     0          1          0      )
                  (     0          0          1      )

 cart.    s( 1) = (  1.0000000  0.0000000  0.0000000 )
                  (  0.0000000  1.0000000  0.0000000 )
                  (  0.0000000  0.0000000  1.0000000 )


      isym =  2     180 deg rotation - cart. axis [0,0,1]        

 cryst.   s( 2) = (    -1          0          0      )    f =(  0.5000000 )
                  (     0         -1          0      )       ( -0.0000000 )
                  (     0          0          1      )       ( -0.5000000 )

 cart.    s( 2) = ( -1.0000000  0.0000000  0.0000000 )    f =(  0.5000000 )
                  (  0.0000000 -1.0000000  0.0000000 )       ( -0.0000000 )
                  (  0.0000000  0.0000000  1.0000000 )       ( -0.5000000 )


      isym =  3     180 deg rotation - cart. axis [0,1,0]        

 cryst.   s( 3) = (    -1          0          0      )    f =( -0.0000000 )
                  (     0          1          0      )       ( -0.5000000 )
                  (     0          0         -1      )       (  0.5000000 )

 cart.    s( 3) = ( -1.0000000  0.0000000  0.0000000 )    f =( -0.0000000 )
                  (  0.0000000  1.0000000  0.0000000 )       ( -0.5000000 )
                  (  0.0000000  0.0000000 -1.0000000 )       (  0.5000000 )


      isym =  4     180 deg rotation - cart. axis [1,0,0]        

 cryst.   s( 4) = (     1          0          0      )    f =( -0.5000000 )
                  (     0         -1          0      )       (  0.5000000 )
                  (     0          0         -1      )       ( -0.0000000 )

 cart.    s( 4) = (  1.0000000  0.0000000  0.0000000 )    f =( -0.5000000 )
                  (  0.0000000 -1.0000000  0.0000000 )       (  0.5000000 )
                  (  0.0000000  0.0000000 -1.0000000 )       ( -0.0000000 )


      isym =  5     120 deg rotation - cart. axis [-1,-1,-1]     

 cryst.   s( 5) = (     0          0          1      )
                  (     1          0          0      )
                  (     0          1          0      )

 cart.    s( 5) = (  0.0000000  1.0000000  0.0000000 )
                  (  0.0000000  0.0000000  1.0000000 )
                  (  1.0000000  0.0000000  0.0000000 )


      isym =  6     120 deg rotation - cart. axis [-1,1,1]       

 cryst.   s( 6) = (     0          0         -1      )    f =( -0.0000000 )
                  (    -1          0          0      )       ( -0.5000000 )
                  (     0          1          0      )       (  0.5000000 )

 cart.    s( 6) = (  0.0000000 -1.0000000  0.0000000 )    f =( -0.0000000 )
                  (  0.0000000  0.0000000  1.0000000 )       ( -0.5000000 )
                  ( -1.0000000  0.0000000  0.0000000 )       (  0.5000000 )


      isym =  7     120 deg rotation - cart. axis [1,1,-1]       

 cryst.   s( 7) = (     0          0         -1      )    f =( -0.5000000 )
                  (     1          0          0      )       (  0.5000000 )
                  (     0         -1          0      )       ( -0.0000000 )

 cart.    s( 7) = (  0.0000000  1.0000000  0.0000000 )    f =( -0.5000000 )
                  (  0.0000000  0.0000000 -1.0000000 )       (  0.5000000 )
                  ( -1.0000000  0.0000000  0.0000000 )       ( -0.0000000 )


      isym =  8     120 deg rotation - cart. axis [1,-1,1]       

 cryst.   s( 8) = (     0          0          1      )    f =(  0.5000000 )
                  (    -1          0          0      )       ( -0.0000000 )
                  (     0         -1          0      )       ( -0.5000000 )

 cart.    s( 8) = (  0.0000000 -1.0000000  0.0000000 )    f =(  0.5000000 )
                  (  0.0000000  0.0000000 -1.0000000 )       ( -0.0000000 )
                  (  1.0000000  0.0000000  0.0000000 )       ( -0.5000000 )


      isym =  9     120 deg rotation - cart. axis [1,1,1]        

 cryst.   s( 9) = (     0          1          0      )
                  (     0          0          1      )
                  (     1          0          0      )

 cart.    s( 9) = (  0.0000000  0.0000000  1.0000000 )
                  (  1.0000000  0.0000000  0.0000000 )
                  (  0.0000000  1.0000000  0.0000000 )


      isym = 10     120 deg rotation - cart. axis [-1,1,-1]      

 cryst.   s(10) = (     0         -1          0      )    f =( -0.5000000 )
                  (     0          0         -1      )       (  0.5000000 )
                  (     1          0          0      )       ( -0.0000000 )

 cart.    s(10) = (  0.0000000  0.0000000  1.0000000 )    f =( -0.5000000 )
                  ( -1.0000000  0.0000000  0.0000000 )       (  0.5000000 )
                  (  0.0000000 -1.0000000  0.0000000 )       ( -0.0000000 )


      isym = 11     120 deg rotation - cart. axis [1,-1,-1]      

 cryst.   s(11) = (     0         -1          0      )    f =(  0.5000000 )
                  (     0          0          1      )       ( -0.0000000 )
                  (    -1          0          0      )       ( -0.5000000 )

 cart.    s(11) = (  0.0000000  0.0000000 -1.0000000 )    f =(  0.5000000 )
                  ( -1.0000000  0.0000000  0.0000000 )       ( -0.0000000 )
                  (  0.0000000  1.0000000  0.0000000 )       ( -0.5000000 )


      isym = 12     120 deg rotation - cart. axis [-1,-1,1]      

 cryst.   s(12) = (     0          1          0      )    f =( -0.0000000 )
                  (     0          0         -1      )       ( -0.5000000 )
                  (    -1          0          0      )       (  0.5000000 )

 cart.    s(12) = (  0.0000000  0.0000000 -1.0000000 )    f =( -0.0000000 )
                  (  1.0000000  0.0000000  0.0000000 )       ( -0.5000000 )
                  (  0.0000000 -1.0000000  0.0000000 )       (  0.5000000 )


   Cartesian axes

     site n.     atom                  positions (alat units)
         1           N   tau(   1) = (   0.2110000   0.2110000   0.2110000  )
         2           N   tau(   2) = (   0.2890000   0.7890000   0.7110000  )
         3           N   tau(   3) = (   0.7890000   0.7110000   0.2890000  )
         4           N   tau(   4) = (   0.7110000   0.2890000   0.7890000  )
         5           H   tau(   5) = (   0.3900000   0.2430000   0.1240000  )
         6           H   tau(   6) = (   0.1100000   0.7570000   0.6240000  )
         7           H   tau(   7) = (   0.6100000   0.7430000   0.3760000  )
         8           H   tau(   8) = (   0.8900000   0.2570000   0.8760000  )
         9           H   tau(   9) = (   0.1240000   0.3900000   0.2430000  )
        10           H   tau(  10) = (   0.6240000   0.1100000   0.7570000  )
        11           H   tau(  11) = (   0.3760000   0.6100000   0.7430000  )
        12           H   tau(  12) = (   0.8760000   0.8900000   0.2570000  )
        13           H   tau(  13) = (   0.2430000   0.1240000   0.3900000  )
        14           H   tau(  14) = (   0.7570000   0.6240000   0.1100000  )
        15           H   tau(  15) = (   0.7430000   0.3760000   0.6100000  )
        16           H   tau(  16) = (   0.2570000   0.8760000   0.8900000  )

   Crystallographic axes

     site n.     atom                  positions (cryst. coord.)
         1           N   tau(   1) = (  0.2110000  0.2110000  0.2110000  )
         2           N   tau(   2) = (  0.2890000  0.7890000  0.7110000  )
         3           N   tau(   3) = (  0.7890000  0.7110000  0.2890000  )
         4           N   tau(   4) = (  0.7110000  0.2890000  0.7890000  )
         5           H   tau(   5) = (  0.3900000  0.2430000  0.1240000  )
         6           H   tau(   6) = (  0.1100000  0.7570000  0.6240000  )
         7           H   tau(   7) = (  0.6100000  0.7430000  0.3760000  )
         8           H   tau(   8) = (  0.8900000  0.2570000  0.8760000  )
         9           H   tau(   9) = (  0.1240000  0.3900000  0.2430000  )
        10           H   tau(  10) = (  0.6240000  0.1100000  0.7570000  )
        11           H   tau(  11) = (  0.3760000  0.6100000  0.7430000  )
        12           H   tau(  12) = (  0.8760000  0.8900000  0.2570000  )
        13           H   tau(  13) = (  0.2430000  0.1240000  0.3900000  )
        14           H   tau(  14) = (  0.7570000  0.6240000  0.1100000  )
        15           H   tau(  15) = (  0.7430000  0.3760000  0.6100000  )
        16           H   tau(  16) = (  0.2570000  0.8760000  0.8900000  )

     number of k points=   286  Marzari-Vanderbilt smearing, width (Ry)=  0.0147
                       cart. coord. in units 2pi/alat
        k(    1) = (   0.0000000   0.0000000   0.0000000), wk =   0.0002500
        k(    2) = (   0.0000000   0.0000000   0.0500000), wk =   0.0015000
        k(    3) = (   0.0000000   0.0000000   0.1000000), wk =   0.0015000
        k(    4) = (   0.0000000   0.0000000   0.1500000), wk =   0.0015000
        k(    5) = (   0.0000000   0.0000000   0.2000000), wk =   0.0015000
        k(    6) = (   0.0000000   0.0000000   0.2500000), wk =   0.0015000
        k(    7) = (   0.0000000   0.0000000   0.3000000), wk =   0.0015000
        k(    8) = (   0.0000000   0.0000000   0.3500000), wk =   0.0015000
        k(    9) = (   0.0000000   0.0000000   0.4000000), wk =   0.0015000
        k(   10) = (   0.0000000   0.0000000   0.4500000), wk =   0.0015000
        k(   11) = (   0.0000000   0.0000000  -0.5000000), wk =   0.0007500
        k(   12) = (   0.0000000   0.0500000   0.0500000), wk =   0.0030000
        k(   13) = (   0.0000000   0.0500000   0.1000000), wk =   0.0060000
        k(   14) = (   0.0000000   0.0500000   0.1500000), wk =   0.0060000
        k(   15) = (   0.0000000   0.0500000   0.2000000), wk =   0.0060000
        k(   16) = (   0.0000000   0.0500000   0.2500000), wk =   0.0060000
        k(   17) = (   0.0000000   0.0500000   0.3000000), wk =   0.0060000
        k(   18) = (   0.0000000   0.0500000   0.3500000), wk =   0.0060000
        k(   19) = (   0.0000000   0.0500000   0.4000000), wk =   0.0060000
        k(   20) = (   0.0000000   0.0500000   0.4500000), wk =   0.0060000
        k(   21) = (   0.0000000   0.0500000  -0.5000000), wk =   0.0030000
        k(   22) = (   0.0000000   0.1000000   0.1000000), wk =   0.0030000
        k(   23) = (   0.0000000   0.1000000   0.1500000), wk =   0.0060000
        k(   24) = (   0.0000000   0.1000000   0.2000000), wk =   0.0060000
        k(   25) = (   0.0000000   0.1000000   0.2500000), wk =   0.0060000
        k(   26) = (   0.0000000   0.1000000   0.3000000), wk =   0.0060000
        k(   27) = (   0.0000000   0.1000000   0.3500000), wk =   0.0060000
        k(   28) = (   0.0000000   0.1000000   0.4000000), wk =   0.0060000
        k(   29) = (   0.0000000   0.1000000   0.4500000), wk =   0.0060000
        k(   30) = (   0.0000000   0.1000000  -0.5000000), wk =   0.0030000
        k(   31) = (   0.0000000   0.1500000   0.1500000), wk =   0.0030000
        k(   32) = (   0.0000000   0.1500000   0.2000000), wk =   0.0060000
        k(   33) = (   0.0000000   0.1500000   0.2500000), wk =   0.0060000
        k(   34) = (   0.0000000   0.1500000   0.3000000), wk =   0.0060000
        k(   35) = (   0.0000000   0.1500000   0.3500000), wk =   0.0060000
        k(   36) = (   0.0000000   0.1500000   0.4000000), wk =   0.0060000
        k(   37) = (   0.0000000   0.1500000   0.4500000), wk =   0.0060000
        k(   38) = (   0.0000000   0.1500000  -0.5000000), wk =   0.0030000
        k(   39) = (   0.0000000   0.2000000   0.2000000), wk =   0.0030000
        k(   40) = (   0.0000000   0.2000000   0.2500000), wk =   0.0060000
        k(   41) = (   0.0000000   0.2000000   0.3000000), wk =   0.0060000
        k(   42) = (   0.0000000   0.2000000   0.3500000), wk =   0.0060000
        k(   43) = (   0.0000000   0.2000000   0.4000000), wk =   0.0060000
        k(   44) = (   0.0000000   0.2000000   0.4500000), wk =   0.0060000
        k(   45) = (   0.0000000   0.2000000  -0.5000000), wk =   0.0030000
        k(   46) = (   0.0000000   0.2500000   0.2500000), wk =   0.0030000
        k(   47) = (   0.0000000   0.2500000   0.3000000), wk =   0.0060000
        k(   48) = (   0.0000000   0.2500000   0.3500000), wk =   0.0060000
        k(   49) = (   0.0000000   0.2500000   0.4000000), wk =   0.0060000
        k(   50) = (   0.0000000   0.2500000   0.4500000), wk =   0.0060000
        k(   51) = (   0.0000000   0.2500000  -0.5000000), wk =   0.0030000
        k(   52) = (   0.0000000   0.3000000   0.3000000), wk =   0.0030000
        k(   53) = (   0.0000000   0.3000000   0.3500000), wk =   0.0060000
        k(   54) = (   0.0000000   0.3000000   0.4000000), wk =   0.0060000
        k(   55) = (   0.0000000   0.3000000   0.4500000), wk =   0.0060000
        k(   56) = (   0.0000000   0.3000000  -0.5000000), wk =   0.0030000
        k(   57) = (   0.0000000   0.3500000   0.3500000), wk =   0.0030000
        k(   58) = (   0.0000000   0.3500000   0.4000000), wk =   0.0060000
        k(   59) = (   0.0000000   0.3500000   0.4500000), wk =   0.0060000
        k(   60) = (   0.0000000   0.3500000  -0.5000000), wk =   0.0030000
        k(   61) = (   0.0000000   0.4000000   0.4000000), wk =   0.0030000
        k(   62) = (   0.0000000   0.4000000   0.4500000), wk =   0.0060000
        k(   63) = (   0.0000000   0.4000000  -0.5000000), wk =   0.0030000
        k(   64) = (   0.0000000   0.4500000   0.4500000), wk =   0.0030000
        k(   65) = (   0.0000000   0.4500000  -0.5000000), wk =   0.0030000
        k(   66) = (   0.0000000  -0.5000000  -0.5000000), wk =   0.0007500
        k(   67) = (   0.0500000   0.0500000   0.0500000), wk =   0.0020000
        k(   68) = (   0.0500000   0.0500000   0.1000000), wk =   0.0060000
        k(   69) = (   0.0500000   0.0500000   0.1500000), wk =   0.0060000
        k(   70) = (   0.0500000   0.0500000   0.2000000), wk =   0.0060000
        k(   71) = (   0.0500000   0.0500000   0.2500000), wk =   0.0060000
        k(   72) = (   0.0500000   0.0500000   0.3000000), wk =   0.0060000
        k(   73) = (   0.0500000   0.0500000   0.3500000), wk =   0.0060000
        k(   74) = (   0.0500000   0.0500000   0.4000000), wk =   0.0060000
        k(   75) = (   0.0500000   0.0500000   0.4500000), wk =   0.0060000
        k(   76) = (   0.0500000   0.0500000  -0.5000000), wk =   0.0030000
        k(   77) = (   0.0500000   0.1000000   0.1000000), wk =   0.0060000
        k(   78) = (   0.0500000   0.1000000   0.1500000), wk =   0.0120000
        k(   79) = (   0.0500000   0.1000000   0.2000000), wk =   0.0120000
        k(   80) = (   0.0500000   0.1000000   0.2500000), wk =   0.0120000
        k(   81) = (   0.0500000   0.1000000   0.3000000), wk =   0.0120000
        k(   82) = (   0.0500000   0.1000000   0.3500000), wk =   0.0120000
        k(   83) = (   0.0500000   0.1000000   0.4000000), wk =   0.0120000
        k(   84) = (   0.0500000   0.1000000   0.4500000), wk =   0.0120000
        k(   85) = (   0.0500000   0.1000000  -0.5000000), wk =   0.0060000
        k(   86) = (   0.0500000   0.1500000   0.1500000), wk =   0.0060000
        k(   87) = (   0.0500000   0.1500000   0.2000000), wk =   0.0120000
        k(   88) = (   0.0500000   0.1500000   0.2500000), wk =   0.0120000
        k(   89) = (   0.0500000   0.1500000   0.3000000), wk =   0.0120000
        k(   90) = (   0.0500000   0.1500000   0.3500000), wk =   0.0120000
        k(   91) = (   0.0500000   0.1500000   0.4000000), wk =   0.0120000
        k(   92) = (   0.0500000   0.1500000   0.4500000), wk =   0.0120000
        k(   93) = (   0.0500000   0.1500000  -0.5000000), wk =   0.0060000
        k(   94) = (   0.0500000   0.2000000   0.2000000), wk =   0.0060000
        k(   95) = (   0.0500000   0.2000000   0.2500000), wk =   0.0120000
        k(   96) = (   0.0500000   0.2000000   0.3000000), wk =   0.0120000
        k(   97) = (   0.0500000   0.2000000   0.3500000), wk =   0.0120000
        k(   98) = (   0.0500000   0.2000000   0.4000000), wk =   0.0120000
        k(   99) = (   0.0500000   0.2000000   0.4500000), wk =   0.0120000
        k(  100) = (   0.0500000   0.2000000  -0.5000000), wk =   0.0060000
        k(  101) = (   0.0500000   0.2500000   0.2500000), wk =   0.0060000
        k(  102) = (   0.0500000   0.2500000   0.3000000), wk =   0.0120000
        k(  103) = (   0.0500000   0.2500000   0.3500000), wk =   0.0120000
        k(  104) = (   0.0500000   0.2500000   0.4000000), wk =   0.0120000
        k(  105) = (   0.0500000   0.2500000   0.4500000), wk =   0.0120000
        k(  106) = (   0.0500000   0.2500000  -0.5000000), wk =   0.0060000
        k(  107) = (   0.0500000   0.3000000   0.3000000), wk =   0.0060000
        k(  108) = (   0.0500000   0.3000000   0.3500000), wk =   0.0120000
        k(  109) = (   0.0500000   0.3000000   0.4000000), wk =   0.0120000
        k(  110) = (   0.0500000   0.3000000   0.4500000), wk =   0.0120000
        k(  111) = (   0.0500000   0.3000000  -0.5000000), wk =   0.0060000
        k(  112) = (   0.0500000   0.3500000   0.3500000), wk =   0.0060000
        k(  113) = (   0.0500000   0.3500000   0.4000000), wk =   0.0120000
        k(  114) = (   0.0500000   0.3500000   0.4500000), wk =   0.0120000
        k(  115) = (   0.0500000   0.3500000  -0.5000000), wk =   0.0060000
        k(  116) = (   0.0500000   0.4000000   0.4000000), wk =   0.0060000
        k(  117) = (   0.0500000   0.4000000   0.4500000), wk =   0.0120000
        k(  118) = (   0.0500000   0.4000000  -0.5000000), wk =   0.0060000
        k(  119) = (   0.0500000   0.4500000   0.4500000), wk =   0.0060000
        k(  120) = (   0.0500000   0.4500000  -0.5000000), wk =   0.0060000
        k(  121) = (   0.0500000  -0.5000000  -0.5000000), wk =   0.0015000
        k(  122) = (   0.1000000   0.1000000   0.1000000), wk =   0.0020000
        k(  123) = (   0.1000000   0.1000000   0.1500000), wk =   0.0060000
        k(  124) = (   0.1000000   0.1000000   0.2000000), wk =   0.0060000
        k(  125) = (   0.1000000   0.1000000   0.2500000), wk =   0.0060000
        k(  126) = (   0.1000000   0.1000000   0.3000000), wk =   0.0060000
        k(  127) = (   0.1000000   0.1000000   0.3500000), wk =   0.0060000
        k(  128) = (   0.1000000   0.1000000   0.4000000), wk =   0.0060000
        k(  129) = (   0.1000000   0.1000000   0.4500000), wk =   0.0060000
        k(  130) = (   0.1000000   0.1000000  -0.5000000), wk =   0.0030000
        k(  131) = (   0.1000000   0.1500000   0.1500000), wk =   0.0060000
        k(  132) = (   0.1000000   0.1500000   0.2000000), wk =   0.0120000
        k(  133) = (   0.1000000   0.1500000   0.2500000), wk =   0.0120000
        k(  134) = (   0.1000000   0.1500000   0.3000000), wk =   0.0120000
        k(  135) = (   0.1000000   0.1500000   0.3500000), wk =   0.0120000
        k(  136) = (   0.1000000   0.1500000   0.4000000), wk =   0.0120000
        k(  137) = (   0.1000000   0.1500000   0.4500000), wk =   0.0120000
        k(  138) = (   0.1000000   0.1500000  -0.5000000), wk =   0.0060000
        k(  139) = (   0.1000000   0.2000000   0.2000000), wk =   0.0060000
        k(  140) = (   0.1000000   0.2000000   0.2500000), wk =   0.0120000
        k(  141) = (   0.1000000   0.2000000   0.3000000), wk =   0.0120000
        k(  142) = (   0.1000000   0.2000000   0.3500000), wk =   0.0120000
        k(  143) = (   0.1000000   0.2000000   0.4000000), wk =   0.0120000
        k(  144) = (   0.1000000   0.2000000   0.4500000), wk =   0.0120000
        k(  145) = (   0.1000000   0.2000000  -0.5000000), wk =   0.0060000
        k(  146) = (   0.1000000   0.2500000   0.2500000), wk =   0.0060000
        k(  147) = (   0.1000000   0.2500000   0.3000000), wk =   0.0120000
        k(  148) = (   0.1000000   0.2500000   0.3500000), wk =   0.0120000
        k(  149) = (   0.1000000   0.2500000   0.4000000), wk =   0.0120000
        k(  150) = (   0.1000000   0.2500000   0.4500000), wk =   0.0120000
        k(  151) = (   0.1000000   0.2500000  -0.5000000), wk =   0.0060000
        k(  152) = (   0.1000000   0.3000000   0.3000000), wk =   0.0060000
        k(  153) = (   0.1000000   0.3000000   0.3500000), wk =   0.0120000
        k(  154) = (   0.1000000   0.3000000   0.4000000), wk =   0.0120000
        k(  155) = (   0.1000000   0.3000000   0.4500000), wk =   0.0120000
        k(  156) = (   0.1000000   0.3000000  -0.5000000), wk =   0.0060000
        k(  157) = (   0.1000000   0.3500000   0.3500000), wk =   0.0060000
        k(  158) = (   0.1000000   0.3500000   0.4000000), wk =   0.0120000
        k(  159) = (   0.1000000   0.3500000   0.4500000), wk =   0.0120000
        k(  160) = (   0.1000000   0.3500000  -0.5000000), wk =   0.0060000
        k(  161) = (   0.1000000   0.4000000   0.4000000), wk =   0.0060000
        k(  162) = (   0.1000000   0.4000000   0.4500000), wk =   0.0120000
        k(  163) = (   0.1000000   0.4000000  -0.5000000), wk =   0.0060000
        k(  164) = (   0.1000000   0.4500000   0.4500000), wk =   0.0060000
        k(  165) = (   0.1000000   0.4500000  -0.5000000), wk =   0.0060000
        k(  166) = (   0.1000000  -0.5000000  -0.5000000), wk =   0.0015000
        k(  167) = (   0.1500000   0.1500000   0.1500000), wk =   0.0020000
        k(  168) = (   0.1500000   0.1500000   0.2000000), wk =   0.0060000
        k(  169) = (   0.1500000   0.1500000   0.2500000), wk =   0.0060000
        k(  170) = (   0.1500000   0.1500000   0.3000000), wk =   0.0060000
        k(  171) = (   0.1500000   0.1500000   0.3500000), wk =   0.0060000
        k(  172) = (   0.1500000   0.1500000   0.4000000), wk =   0.0060000
        k(  173) = (   0.1500000   0.1500000   0.4500000), wk =   0.0060000
        k(  174) = (   0.1500000   0.1500000  -0.5000000), wk =   0.0030000
        k(  175) = (   0.1500000   0.2000000   0.2000000), wk =   0.0060000
        k(  176) = (   0.1500000   0.2000000   0.2500000), wk =   0.0120000
        k(  177) = (   0.1500000   0.2000000   0.3000000), wk =   0.0120000
        k(  178) = (   0.1500000   0.2000000   0.3500000), wk =   0.0120000
        k(  179) = (   0.1500000   0.2000000   0.4000000), wk =   0.0120000
        k(  180) = (   0.1500000   0.2000000   0.4500000), wk =   0.0120000
        k(  181) = (   0.1500000   0.2000000  -0.5000000), wk =   0.0060000
        k(  182) = (   0.1500000   0.2500000   0.2500000), wk =   0.0060000
        k(  183) = (   0.1500000   0.2500000   0.3000000), wk =   0.0120000
        k(  184) = (   0.1500000   0.2500000   0.3500000), wk =   0.0120000
        k(  185) = (   0.1500000   0.2500000   0.4000000), wk =   0.0120000
        k(  186) = (   0.1500000   0.2500000   0.4500000), wk =   0.0120000
        k(  187) = (   0.1500000   0.2500000  -0.5000000), wk =   0.0060000
        k(  188) = (   0.1500000   0.3000000   0.3000000), wk =   0.0060000
        k(  189) = (   0.1500000   0.3000000   0.3500000), wk =   0.0120000
        k(  190) = (   0.1500000   0.3000000   0.4000000), wk =   0.0120000
        k(  191) = (   0.1500000   0.3000000   0.4500000), wk =   0.0120000
        k(  192) = (   0.1500000   0.3000000  -0.5000000), wk =   0.0060000
        k(  193) = (   0.1500000   0.3500000   0.3500000), wk =   0.0060000
        k(  194) = (   0.1500000   0.3500000   0.4000000), wk =   0.0120000
        k(  195) = (   0.1500000   0.3500000   0.4500000), wk =   0.0120000
        k(  196) = (   0.1500000   0.3500000  -0.5000000), wk =   0.0060000
        k(  197) = (   0.1500000   0.4000000   0.4000000), wk =   0.0060000
        k(  198) = (   0.1500000   0.4000000   0.4500000), wk =   0.0120000
        k(  199) = (   0.1500000   0.4000000  -0.5000000), wk =   0.0060000
        k(  200) = (   0.1500000   0.4500000   0.4500000), wk =   0.0060000
        k(  201) = (   0.1500000   0.4500000  -0.5000000), wk =   0.0060000
        k(  202) = (   0.1500000  -0.5000000  -0.5000000), wk =   0.0015000
        k(  203) = (   0.2000000   0.2000000   0.2000000), wk =   0.0020000
        k(  204) = (   0.2000000   0.2000000   0.2500000), wk =   0.0060000
        k(  205) = (   0.2000000   0.2000000   0.3000000), wk =   0.0060000
        k(  206) = (   0.2000000   0.2000000   0.3500000), wk =   0.0060000
        k(  207) = (   0.2000000   0.2000000   0.4000000), wk =   0.0060000
        k(  208) = (   0.2000000   0.2000000   0.4500000), wk =   0.0060000
        k(  209) = (   0.2000000   0.2000000  -0.5000000), wk =   0.0030000
        k(  210) = (   0.2000000   0.2500000   0.2500000), wk =   0.0060000
        k(  211) = (   0.2000000   0.2500000   0.3000000), wk =   0.0120000
        k(  212) = (   0.2000000   0.2500000   0.3500000), wk =   0.0120000
        k(  213) = (   0.2000000   0.2500000   0.4000000), wk =   0.0120000
        k(  214) = (   0.2000000   0.2500000   0.4500000), wk =   0.0120000
        k(  215) = (   0.2000000   0.2500000  -0.5000000), wk =   0.0060000
        k(  216) = (   0.2000000   0.3000000   0.3000000), wk =   0.0060000
        k(  217) = (   0.2000000   0.3000000   0.3500000), wk =   0.0120000
        k(  218) = (   0.2000000   0.3000000   0.4000000), wk =   0.0120000
        k(  219) = (   0.2000000   0.3000000   0.4500000), wk =   0.0120000
        k(  220) = (   0.2000000   0.3000000  -0.5000000), wk =   0.0060000
        k(  221) = (   0.2000000   0.3500000   0.3500000), wk =   0.0060000
        k(  222) = (   0.2000000   0.3500000   0.4000000), wk =   0.0120000
        k(  223) = (   0.2000000   0.3500000   0.4500000), wk =   0.0120000
        k(  224) = (   0.2000000   0.3500000  -0.5000000), wk =   0.0060000
        k(  225) = (   0.2000000   0.4000000   0.4000000), wk =   0.0060000
        k(  226) = (   0.2000000   0.4000000   0.4500000), wk =   0.0120000
        k(  227) = (   0.2000000   0.4000000  -0.5000000), wk =   0.0060000
        k(  228) = (   0.2000000   0.4500000   0.4500000), wk =   0.0060000
        k(  229) = (   0.2000000   0.4500000  -0.5000000), wk =   0.0060000
        k(  230) = (   0.2000000  -0.5000000  -0.5000000), wk =   0.0015000
        k(  231) = (   0.2500000   0.2500000   0.2500000), wk =   0.0020000
        k(  232) = (   0.2500000   0.2500000   0.3000000), wk =   0.0060000
        k(  233) = (   0.2500000   0.2500000   0.3500000), wk =   0.0060000
        k(  234) = (   0.2500000   0.2500000   0.4000000), wk =   0.0060000
        k(  235) = (   0.2500000   0.2500000   0.4500000), wk =   0.0060000
        k(  236) = (   0.2500000   0.2500000  -0.5000000), wk =   0.0030000
        k(  237) = (   0.2500000   0.3000000   0.3000000), wk =   0.0060000
        k(  238) = (   0.2500000   0.3000000   0.3500000), wk =   0.0120000
        k(  239) = (   0.2500000   0.3000000   0.4000000), wk =   0.0120000
        k(  240) = (   0.2500000   0.3000000   0.4500000), wk =   0.0120000
        k(  241) = (   0.2500000   0.3000000  -0.5000000), wk =   0.0060000
        k(  242) = (   0.2500000   0.3500000   0.3500000), wk =   0.0060000
        k(  243) = (   0.2500000   0.3500000   0.4000000), wk =   0.0120000
        k(  244) = (   0.2500000   0.3500000   0.4500000), wk =   0.0120000
        k(  245) = (   0.2500000   0.3500000  -0.5000000), wk =   0.0060000
        k(  246) = (   0.2500000   0.4000000   0.4000000), wk =   0.0060000
        k(  247) = (   0.2500000   0.4000000   0.4500000), wk =   0.0120000
        k(  248) = (   0.2500000   0.4000000  -0.5000000), wk =   0.0060000
        k(  249) = (   0.2500000   0.4500000   0.4500000), wk =   0.0060000
        k(  250) = (   0.2500000   0.4500000  -0.5000000), wk =   0.0060000
        k(  251) = (   0.2500000  -0.5000000  -0.5000000), wk =   0.0015000
        k(  252) = (   0.3000000   0.3000000   0.3000000), wk =   0.0020000
        k(  253) = (   0.3000000   0.3000000   0.3500000), wk =   0.0060000
        k(  254) = (   0.3000000   0.3000000   0.4000000), wk =   0.0060000
        k(  255) = (   0.3000000   0.3000000   0.4500000), wk =   0.0060000
        k(  256) = (   0.3000000   0.3000000  -0.5000000), wk =   0.0030000
        k(  257) = (   0.3000000   0.3500000   0.3500000), wk =   0.0060000
        k(  258) = (   0.3000000   0.3500000   0.4000000), wk =   0.0120000
        k(  259) = (   0.3000000   0.3500000   0.4500000), wk =   0.0120000
        k(  260) = (   0.3000000   0.3500000  -0.5000000), wk =   0.0060000
        k(  261) = (   0.3000000   0.4000000   0.4000000), wk =   0.0060000
        k(  262) = (   0.3000000   0.4000000   0.4500000), wk =   0.0120000
        k(  263) = (   0.3000000   0.4000000  -0.5000000), wk =   0.0060000
        k(  264) = (   0.3000000   0.4500000   0.4500000), wk =   0.0060000
        k(  265) = (   0.3000000   0.4500000  -0.5000000), wk =   0.0060000
        k(  266) = (   0.3000000  -0.5000000  -0.5000000), wk =   0.0015000
        k(  267) = (   0.3500000   0.3500000   0.3500000), wk =   0.0020000
        k(  268) = (   0.3500000   0.3500000   0.4000000), wk =   0.0060000
        k(  269) = (   0.3500000   0.3500000   0.4500000), wk =   0.0060000
        k(  270) = (   0.3500000   0.3500000  -0.5000000), wk =   0.0030000
        k(  271) = (   0.3500000   0.4000000   0.4000000), wk =   0.0060000
        k(  272) = (   0.3500000   0.4000000   0.4500000), wk =   0.0120000
        k(  273) = (   0.3500000   0.4000000  -0.5000000), wk =   0.0060000
        k(  274) = (   0.3500000   0.4500000   0.4500000), wk =   0.0060000
        k(  275) = (   0.3500000   0.4500000  -0.5000000), wk =   0.0060000
        k(  276) = (   0.3500000  -0.5000000  -0.5000000), wk =   0.0015000
        k(  277) = (   0.4000000   0.4000000   0.4000000), wk =   0.0020000
        k(  278) = (   0.4000000   0.4000000   0.4500000), wk =   0.0060000
        k(  279) = (   0.4000000   0.4000000  -0.5000000), wk =   0.0030000
        k(  280) = (   0.4000000   0.4500000   0.4500000), wk =   0.0060000
        k(  281) = (   0.4000000   0.4500000  -0.5000000), wk =   0.0060000
        k(  282) = (   0.4000000  -0.5000000  -0.5000000), wk =   0.0015000
        k(  283) = (   0.4500000   0.4500000   0.4500000), wk =   0.0020000
        k(  284) = (   0.4500000   0.4500000  -0.5000000), wk =   0.0030000
        k(  285) = (   0.4500000  -0.5000000  -0.5000000), wk =   0.0015000
        k(  286) = (  -0.5000000  -0.5000000  -0.5000000), wk =   0.0002500

                       cryst. coord.
        k(    1) = (   0.0000000   0.0000000   0.0000000), wk =   0.0002500
        k(    2) = (   0.0000000   0.0000000   0.0500000), wk =   0.0015000
        k(    3) = (   0.0000000   0.0000000   0.1000000), wk =   0.0015000
        k(    4) = (   0.0000000   0.0000000   0.1500000), wk =   0.0015000
        k(    5) = (   0.0000000   0.0000000   0.2000000), wk =   0.0015000
        k(    6) = (   0.0000000   0.0000000   0.2500000), wk =   0.0015000
        k(    7) = (   0.0000000   0.0000000   0.3000000), wk =   0.0015000
        k(    8) = (   0.0000000   0.0000000   0.3500000), wk =   0.0015000
        k(    9) = (   0.0000000   0.0000000   0.4000000), wk =   0.0015000
        k(   10) = (   0.0000000   0.0000000   0.4500000), wk =   0.0015000
        k(   11) = (   0.0000000   0.0000000  -0.5000000), wk =   0.0007500
        k(   12) = (   0.0000000   0.0500000   0.0500000), wk =   0.0030000
        k(   13) = (   0.0000000   0.0500000   0.1000000), wk =   0.0060000
        k(   14) = (   0.0000000   0.0500000   0.1500000), wk =   0.0060000
        k(   15) = (   0.0000000   0.0500000   0.2000000), wk =   0.0060000
        k(   16) = (   0.0000000   0.0500000   0.2500000), wk =   0.0060000
        k(   17) = (   0.0000000   0.0500000   0.3000000), wk =   0.0060000
        k(   18) = (   0.0000000   0.0500000   0.3500000), wk =   0.0060000
        k(   19) = (   0.0000000   0.0500000   0.4000000), wk =   0.0060000
        k(   20) = (   0.0000000   0.0500000   0.4500000), wk =   0.0060000
        k(   21) = (   0.0000000   0.0500000  -0.5000000), wk =   0.0030000
        k(   22) = (   0.0000000   0.1000000   0.1000000), wk =   0.0030000
        k(   23) = (   0.0000000   0.1000000   0.1500000), wk =   0.0060000
        k(   24) = (   0.0000000   0.1000000   0.2000000), wk =   0.0060000
        k(   25) = (   0.0000000   0.1000000   0.2500000), wk =   0.0060000
        k(   26) = (   0.0000000   0.1000000   0.3000000), wk =   0.0060000
        k(   27) = (   0.0000000   0.1000000   0.3500000), wk =   0.0060000
        k(   28) = (   0.0000000   0.1000000   0.4000000), wk =   0.0060000
        k(   29) = (   0.0000000   0.1000000   0.4500000), wk =   0.0060000
        k(   30) = (   0.0000000   0.1000000  -0.5000000), wk =   0.0030000
        k(   31) = (   0.0000000   0.1500000   0.1500000), wk =   0.0030000
        k(   32) = (   0.0000000   0.1500000   0.2000000), wk =   0.0060000
        k(   33) = (   0.0000000   0.1500000   0.2500000), wk =   0.0060000
        k(   34) = (   0.0000000   0.1500000   0.3000000), wk =   0.0060000
        k(   35) = (   0.0000000   0.1500000   0.3500000), wk =   0.0060000
        k(   36) = (   0.0000000   0.1500000   0.4000000), wk =   0.0060000
        k(   37) = (   0.0000000   0.1500000   0.4500000), wk =   0.0060000
        k(   38) = (   0.0000000   0.1500000  -0.5000000), wk =   0.0030000
        k(   39) = (   0.0000000   0.2000000   0.2000000), wk =   0.0030000
        k(   40) = (   0.0000000   0.2000000   0.2500000), wk =   0.0060000
        k(   41) = (   0.0000000   0.2000000   0.3000000), wk =   0.0060000
        k(   42) = (   0.0000000   0.2000000   0.3500000), wk =   0.0060000
        k(   43) = (   0.0000000   0.2000000   0.4000000), wk =   0.0060000
        k(   44) = (   0.0000000   0.2000000   0.4500000), wk =   0.0060000
        k(   45) = (   0.0000000   0.2000000  -0.5000000), wk =   0.0030000
        k(   46) = (   0.0000000   0.2500000   0.2500000), wk =   0.0030000
        k(   47) = (   0.0000000   0.2500000   0.3000000), wk =   0.0060000
        k(   48) = (   0.0000000   0.2500000   0.3500000), wk =   0.0060000
        k(   49) = (   0.0000000   0.2500000   0.4000000), wk =   0.0060000
        k(   50) = (   0.0000000   0.2500000   0.4500000), wk =   0.0060000
        k(   51) = (   0.0000000   0.2500000  -0.5000000), wk =   0.0030000
        k(   52) = (   0.0000000   0.3000000   0.3000000), wk =   0.0030000
        k(   53) = (   0.0000000   0.3000000   0.3500000), wk =   0.0060000
        k(   54) = (   0.0000000   0.3000000   0.4000000), wk =   0.0060000
        k(   55) = (   0.0000000   0.3000000   0.4500000), wk =   0.0060000
        k(   56) = (   0.0000000   0.3000000  -0.5000000), wk =   0.0030000
        k(   57) = (   0.0000000   0.3500000   0.3500000), wk =   0.0030000
        k(   58) = (   0.0000000   0.3500000   0.4000000), wk =   0.0060000
        k(   59) = (   0.0000000   0.3500000   0.4500000), wk =   0.0060000
        k(   60) = (   0.0000000   0.3500000  -0.5000000), wk =   0.0030000
        k(   61) = (   0.0000000   0.4000000   0.4000000), wk =   0.0030000
        k(   62) = (   0.0000000   0.4000000   0.4500000), wk =   0.0060000
        k(   63) = (   0.0000000   0.4000000  -0.5000000), wk =   0.0030000
        k(   64) = (   0.0000000   0.4500000   0.4500000), wk =   0.0030000
        k(   65) = (   0.0000000   0.4500000  -0.5000000), wk =   0.0030000
        k(   66) = (   0.0000000  -0.5000000  -0.5000000), wk =   0.0007500
        k(   67) = (   0.0500000   0.0500000   0.0500000), wk =   0.0020000
        k(   68) = (   0.0500000   0.0500000   0.1000000), wk =   0.0060000
        k(   69) = (   0.0500000   0.0500000   0.1500000), wk =   0.0060000
        k(   70) = (   0.0500000   0.0500000   0.2000000), wk =   0.0060000
        k(   71) = (   0.0500000   0.0500000   0.2500000), wk =   0.0060000
        k(   72) = (   0.0500000   0.0500000   0.3000000), wk =   0.0060000
        k(   73) = (   0.0500000   0.0500000   0.3500000), wk =   0.0060000
        k(   74) = (   0.0500000   0.0500000   0.4000000), wk =   0.0060000
        k(   75) = (   0.0500000   0.0500000   0.4500000), wk =   0.0060000
        k(   76) = (   0.0500000   0.0500000  -0.5000000), wk =   0.0030000
        k(   77) = (   0.0500000   0.1000000   0.1000000), wk =   0.0060000
        k(   78) = (   0.0500000   0.1000000   0.1500000), wk =   0.0120000
        k(   79) = (   0.0500000   0.1000000   0.2000000), wk =   0.0120000
        k(   80) = (   0.0500000   0.1000000   0.2500000), wk =   0.0120000
        k(   81) = (   0.0500000   0.1000000   0.3000000), wk =   0.0120000
        k(   82) = (   0.0500000   0.1000000   0.3500000), wk =   0.0120000
        k(   83) = (   0.0500000   0.1000000   0.4000000), wk =   0.0120000
        k(   84) = (   0.0500000   0.1000000   0.4500000), wk =   0.0120000
        k(   85) = (   0.0500000   0.1000000  -0.5000000), wk =   0.0060000
        k(   86) = (   0.0500000   0.1500000   0.1500000), wk =   0.0060000
        k(   87) = (   0.0500000   0.1500000   0.2000000), wk =   0.0120000
        k(   88) = (   0.0500000   0.1500000   0.2500000), wk =   0.0120000
        k(   89) = (   0.0500000   0.1500000   0.3000000), wk =   0.0120000
        k(   90) = (   0.0500000   0.1500000   0.3500000), wk =   0.0120000
        k(   91) = (   0.0500000   0.1500000   0.4000000), wk =   0.0120000
        k(   92) = (   0.0500000   0.1500000   0.4500000), wk =   0.0120000
        k(   93) = (   0.0500000   0.1500000  -0.5000000), wk =   0.0060000
        k(   94) = (   0.0500000   0.2000000   0.2000000), wk =   0.0060000
        k(   95) = (   0.0500000   0.2000000   0.2500000), wk =   0.0120000
        k(   96) = (   0.0500000   0.2000000   0.3000000), wk =   0.0120000
        k(   97) = (   0.0500000   0.2000000   0.3500000), wk =   0.0120000
        k(   98) = (   0.0500000   0.2000000   0.4000000), wk =   0.0120000
        k(   99) = (   0.0500000   0.2000000   0.4500000), wk =   0.0120000
        k(  100) = (   0.0500000   0.2000000  -0.5000000), wk =   0.0060000
        k(  101) = (   0.0500000   0.2500000   0.2500000), wk =   0.0060000
        k(  102) = (   0.0500000   0.2500000   0.3000000), wk =   0.0120000
        k(  103) = (   0.0500000   0.2500000   0.3500000), wk =   0.0120000
        k(  104) = (   0.0500000   0.2500000   0.4000000), wk =   0.0120000
        k(  105) = (   0.0500000   0.2500000   0.4500000), wk =   0.0120000
        k(  106) = (   0.0500000   0.2500000  -0.5000000), wk =   0.0060000
        k(  107) = (   0.0500000   0.3000000   0.3000000), wk =   0.0060000
        k(  108) = (   0.0500000   0.3000000   0.3500000), wk =   0.0120000
        k(  109) = (   0.0500000   0.3000000   0.4000000), wk =   0.0120000
        k(  110) = (   0.0500000   0.3000000   0.4500000), wk =   0.0120000
        k(  111) = (   0.0500000   0.3000000  -0.5000000), wk =   0.0060000
        k(  112) = (   0.0500000   0.3500000   0.3500000), wk =   0.0060000
        k(  113) = (   0.0500000   0.3500000   0.4000000), wk =   0.0120000
        k(  114) = (   0.0500000   0.3500000   0.4500000), wk =   0.0120000
        k(  115) = (   0.0500000   0.3500000  -0.5000000), wk =   0.0060000
        k(  116) = (   0.0500000   0.4000000   0.4000000), wk =   0.0060000
        k(  117) = (   0.0500000   0.4000000   0.4500000), wk =   0.0120000
        k(  118) = (   0.0500000   0.4000000  -0.5000000), wk =   0.0060000
        k(  119) = (   0.0500000   0.4500000   0.4500000), wk =   0.0060000
        k(  120) = (   0.0500000   0.4500000  -0.5000000), wk =   0.0060000
        k(  121) = (   0.0500000  -0.5000000  -0.5000000), wk =   0.0015000
        k(  122) = (   0.1000000   0.1000000   0.1000000), wk =   0.0020000
        k(  123) = (   0.1000000   0.1000000   0.1500000), wk =   0.0060000
        k(  124) = (   0.1000000   0.1000000   0.2000000), wk =   0.0060000
        k(  125) = (   0.1000000   0.1000000   0.2500000), wk =   0.0060000
        k(  126) = (   0.1000000   0.1000000   0.3000000), wk =   0.0060000
        k(  127) = (   0.1000000   0.1000000   0.3500000), wk =   0.0060000
        k(  128) = (   0.1000000   0.1000000   0.4000000), wk =   0.0060000
        k(  129) = (   0.1000000   0.1000000   0.4500000), wk =   0.0060000
        k(  130) = (   0.1000000   0.1000000  -0.5000000), wk =   0.0030000
        k(  131) = (   0.1000000   0.1500000   0.1500000), wk =   0.0060000
        k(  132) = (   0.1000000   0.1500000   0.2000000), wk =   0.0120000
        k(  133) = (   0.1000000   0.1500000   0.2500000), wk =   0.0120000
        k(  134) = (   0.1000000   0.1500000   0.3000000), wk =   0.0120000
        k(  135) = (   0.1000000   0.1500000   0.3500000), wk =   0.0120000
        k(  136) = (   0.1000000   0.1500000   0.4000000), wk =   0.0120000
        k(  137) = (   0.1000000   0.1500000   0.4500000), wk =   0.0120000
        k(  138) = (   0.1000000   0.1500000  -0.5000000), wk =   0.0060000
        k(  139) = (   0.1000000   0.2000000   0.2000000), wk =   0.0060000
        k(  140) = (   0.1000000   0.2000000   0.2500000), wk =   0.0120000
        k(  141) = (   0.1000000   0.2000000   0.3000000), wk =   0.0120000
        k(  142) = (   0.1000000   0.2000000   0.3500000), wk =   0.0120000
        k(  143) = (   0.1000000   0.2000000   0.4000000), wk =   0.0120000
        k(  144) = (   0.1000000   0.2000000   0.4500000), wk =   0.0120000
        k(  145) = (   0.1000000   0.2000000  -0.5000000), wk =   0.0060000
        k(  146) = (   0.1000000   0.2500000   0.2500000), wk =   0.0060000
        k(  147) = (   0.1000000   0.2500000   0.3000000), wk =   0.0120000
        k(  148) = (   0.1000000   0.2500000   0.3500000), wk =   0.0120000
        k(  149) = (   0.1000000   0.2500000   0.4000000), wk =   0.0120000
        k(  150) = (   0.1000000   0.2500000   0.4500000), wk =   0.0120000
        k(  151) = (   0.1000000   0.2500000  -0.5000000), wk =   0.0060000
        k(  152) = (   0.1000000   0.3000000   0.3000000), wk =   0.0060000
        k(  153) = (   0.1000000   0.3000000   0.3500000), wk =   0.0120000
        k(  154) = (   0.1000000   0.3000000   0.4000000), wk =   0.0120000
        k(  155) = (   0.1000000   0.3000000   0.4500000), wk =   0.0120000
        k(  156) = (   0.1000000   0.3000000  -0.5000000), wk =   0.0060000
        k(  157) = (   0.1000000   0.3500000   0.3500000), wk =   0.0060000
        k(  158) = (   0.1000000   0.3500000   0.4000000), wk =   0.0120000
        k(  159) = (   0.1000000   0.3500000   0.4500000), wk =   0.0120000
        k(  160) = (   0.1000000   0.3500000  -0.5000000), wk =   0.0060000
        k(  161) = (   0.1000000   0.4000000   0.4000000), wk =   0.0060000
        k(  162) = (   0.1000000   0.4000000   0.4500000), wk =   0.0120000
        k(  163) = (   0.1000000   0.4000000  -0.5000000), wk =   0.0060000
        k(  164) = (   0.1000000   0.4500000   0.4500000), wk =   0.0060000
        k(  165) = (   0.1000000   0.4500000  -0.5000000), wk =   0.0060000
        k(  166) = (   0.1000000  -0.5000000  -0.5000000), wk =   0.0015000
        k(  167) = (   0.1500000   0.1500000   0.1500000), wk =   0.0020000
        k(  168) = (   0.1500000   0.1500000   0.2000000), wk =   0.0060000
        k(  169) = (   0.1500000   0.1500000   0.2500000), wk =   0.0060000
        k(  170) = (   0.1500000   0.1500000   0.3000000), wk =   0.0060000
        k(  171) = (   0.1500000   0.1500000   0.3500000), wk =   0.0060000
        k(  172) = (   0.1500000   0.1500000   0.4000000), wk =   0.0060000
        k(  173) = (   0.1500000   0.1500000   0.4500000), wk =   0.0060000
        k(  174) = (   0.1500000   0.1500000  -0.5000000), wk =   0.0030000
        k(  175) = (   0.1500000   0.2000000   0.2000000), wk =   0.0060000
        k(  176) = (   0.1500000   0.2000000   0.2500000), wk =   0.0120000
        k(  177) = (   0.1500000   0.2000000   0.3000000), wk =   0.0120000
        k(  178) = (   0.1500000   0.2000000   0.3500000), wk =   0.0120000
        k(  179) = (   0.1500000   0.2000000   0.4000000), wk =   0.0120000
        k(  180) = (   0.1500000   0.2000000   0.4500000), wk =   0.0120000
        k(  181) = (   0.1500000   0.2000000  -0.5000000), wk =   0.0060000
        k(  182) = (   0.1500000   0.2500000   0.2500000), wk =   0.0060000
        k(  183) = (   0.1500000   0.2500000   0.3000000), wk =   0.0120000
        k(  184) = (   0.1500000   0.2500000   0.3500000), wk =   0.0120000
        k(  185) = (   0.1500000   0.2500000   0.4000000), wk =   0.0120000
        k(  186) = (   0.1500000   0.2500000   0.4500000), wk =   0.0120000
        k(  187) = (   0.1500000   0.2500000  -0.5000000), wk =   0.0060000
        k(  188) = (   0.1500000   0.3000000   0.3000000), wk =   0.0060000
        k(  189) = (   0.1500000   0.3000000   0.3500000), wk =   0.0120000
        k(  190) = (   0.1500000   0.3000000   0.4000000), wk =   0.0120000
        k(  191) = (   0.1500000   0.3000000   0.4500000), wk =   0.0120000
        k(  192) = (   0.1500000   0.3000000  -0.5000000), wk =   0.0060000
        k(  193) = (   0.1500000   0.3500000   0.3500000), wk =   0.0060000
        k(  194) = (   0.1500000   0.3500000   0.4000000), wk =   0.0120000
        k(  195) = (   0.1500000   0.3500000   0.4500000), wk =   0.0120000
        k(  196) = (   0.1500000   0.3500000  -0.5000000), wk =   0.0060000
        k(  197) = (   0.1500000   0.4000000   0.4000000), wk =   0.0060000
        k(  198) = (   0.1500000   0.4000000   0.4500000), wk =   0.0120000
        k(  199) = (   0.1500000   0.4000000  -0.5000000), wk =   0.0060000
        k(  200) = (   0.1500000   0.4500000   0.4500000), wk =   0.0060000
        k(  201) = (   0.1500000   0.4500000  -0.5000000), wk =   0.0060000
        k(  202) = (   0.1500000  -0.5000000  -0.5000000), wk =   0.0015000
        k(  203) = (   0.2000000   0.2000000   0.2000000), wk =   0.0020000
        k(  204) = (   0.2000000   0.2000000   0.2500000), wk =   0.0060000
        k(  205) = (   0.2000000   0.2000000   0.3000000), wk =   0.0060000
        k(  206) = (   0.2000000   0.2000000   0.3500000), wk =   0.0060000
        k(  207) = (   0.2000000   0.2000000   0.4000000), wk =   0.0060000
        k(  208) = (   0.2000000   0.2000000   0.4500000), wk =   0.0060000
        k(  209) = (   0.2000000   0.2000000  -0.5000000), wk =   0.0030000
        k(  210) = (   0.2000000   0.2500000   0.2500000), wk =   0.0060000
        k(  211) = (   0.2000000   0.2500000   0.3000000), wk =   0.0120000
        k(  212) = (   0.2000000   0.2500000   0.3500000), wk =   0.0120000
        k(  213) = (   0.2000000   0.2500000   0.4000000), wk =   0.0120000
        k(  214) = (   0.2000000   0.2500000   0.4500000), wk =   0.0120000
        k(  215) = (   0.2000000   0.2500000  -0.5000000), wk =   0.0060000
        k(  216) = (   0.2000000   0.3000000   0.3000000), wk =   0.0060000
        k(  217) = (   0.2000000   0.3000000   0.3500000), wk =   0.0120000
        k(  218) = (   0.2000000   0.3000000   0.4000000), wk =   0.0120000
        k(  219) = (   0.2000000   0.3000000   0.4500000), wk =   0.0120000
        k(  220) = (   0.2000000   0.3000000  -0.5000000), wk =   0.0060000
        k(  221) = (   0.2000000   0.3500000   0.3500000), wk =   0.0060000
        k(  222) = (   0.2000000   0.3500000   0.4000000), wk =   0.0120000
        k(  223) = (   0.2000000   0.3500000   0.4500000), wk =   0.0120000
        k(  224) = (   0.2000000   0.3500000  -0.5000000), wk =   0.0060000
        k(  225) = (   0.2000000   0.4000000   0.4000000), wk =   0.0060000
        k(  226) = (   0.2000000   0.4000000   0.4500000), wk =   0.0120000
        k(  227) = (   0.2000000   0.4000000  -0.5000000), wk =   0.0060000
        k(  228) = (   0.2000000   0.4500000   0.4500000), wk =   0.0060000
        k(  229) = (   0.2000000   0.4500000  -0.5000000), wk =   0.0060000
        k(  230) = (   0.2000000  -0.5000000  -0.5000000), wk =   0.0015000
        k(  231) = (   0.2500000   0.2500000   0.2500000), wk =   0.0020000
        k(  232) = (   0.2500000   0.2500000   0.3000000), wk =   0.0060000
        k(  233) = (   0.2500000   0.2500000   0.3500000), wk =   0.0060000
        k(  234) = (   0.2500000   0.2500000   0.4000000), wk =   0.0060000
        k(  235) = (   0.2500000   0.2500000   0.4500000), wk =   0.0060000
        k(  236) = (   0.2500000   0.2500000  -0.5000000), wk =   0.0030000
        k(  237) = (   0.2500000   0.3000000   0.3000000), wk =   0.0060000
        k(  238) = (   0.2500000   0.3000000   0.3500000), wk =   0.0120000
        k(  239) = (   0.2500000   0.3000000   0.4000000), wk =   0.0120000
        k(  240) = (   0.2500000   0.3000000   0.4500000), wk =   0.0120000
        k(  241) = (   0.2500000   0.3000000  -0.5000000), wk =   0.0060000
        k(  242) = (   0.2500000   0.3500000   0.3500000), wk =   0.0060000
        k(  243) = (   0.2500000   0.3500000   0.4000000), wk =   0.0120000
        k(  244) = (   0.2500000   0.3500000   0.4500000), wk =   0.0120000
        k(  245) = (   0.2500000   0.3500000  -0.5000000), wk =   0.0060000
        k(  246) = (   0.2500000   0.4000000   0.4000000), wk =   0.0060000
        k(  247) = (   0.2500000   0.4000000   0.4500000), wk =   0.0120000
        k(  248) = (   0.2500000   0.4000000  -0.5000000), wk =   0.0060000
        k(  249) = (   0.2500000   0.4500000   0.4500000), wk =   0.0060000
        k(  250) = (   0.2500000   0.4500000  -0.5000000), wk =   0.0060000
        k(  251) = (   0.2500000  -0.5000000  -0.5000000), wk =   0.0015000
        k(  252) = (   0.3000000   0.3000000   0.3000000), wk =   0.0020000
        k(  253) = (   0.3000000   0.3000000   0.3500000), wk =   0.0060000
        k(  254) = (   0.3000000   0.3000000   0.4000000), wk =   0.0060000
        k(  255) = (   0.3000000   0.3000000   0.4500000), wk =   0.0060000
        k(  256) = (   0.3000000   0.3000000  -0.5000000), wk =   0.0030000
        k(  257) = (   0.3000000   0.3500000   0.3500000), wk =   0.0060000
        k(  258) = (   0.3000000   0.3500000   0.4000000), wk =   0.0120000
        k(  259) = (   0.3000000   0.3500000   0.4500000), wk =   0.0120000
        k(  260) = (   0.3000000   0.3500000  -0.5000000), wk =   0.0060000
        k(  261) = (   0.3000000   0.4000000   0.4000000), wk =   0.0060000
        k(  262) = (   0.3000000   0.4000000   0.4500000), wk =   0.0120000
        k(  263) = (   0.3000000   0.4000000  -0.5000000), wk =   0.0060000
        k(  264) = (   0.3000000   0.4500000   0.4500000), wk =   0.0060000
        k(  265) = (   0.3000000   0.4500000  -0.5000000), wk =   0.0060000
        k(  266) = (   0.3000000  -0.5000000  -0.5000000), wk =   0.0015000
        k(  267) = (   0.3500000   0.3500000   0.3500000), wk =   0.0020000
        k(  268) = (   0.3500000   0.3500000   0.4000000), wk =   0.0060000
        k(  269) = (   0.3500000   0.3500000   0.4500000), wk =   0.0060000
        k(  270) = (   0.3500000   0.3500000  -0.5000000), wk =   0.0030000
        k(  271) = (   0.3500000   0.4000000   0.4000000), wk =   0.0060000
        k(  272) = (   0.3500000   0.4000000   0.4500000), wk =   0.0120000
        k(  273) = (   0.3500000   0.4000000  -0.5000000), wk =   0.0060000
        k(  274) = (   0.3500000   0.4500000   0.4500000), wk =   0.0060000
        k(  275) = (   0.3500000   0.4500000  -0.5000000), wk =   0.0060000
        k(  276) = (   0.3500000  -0.5000000  -0.5000000), wk =   0.0015000
        k(  277) = (   0.4000000   0.4000000   0.4000000), wk =   0.0020000
        k(  278) = (   0.4000000   0.4000000   0.4500000), wk =   0.0060000
        k(  279) = (   0.4000000   0.4000000  -0.5000000), wk =   0.0030000
        k(  280) = (   0.4000000   0.4500000   0.4500000), wk =   0.0060000
        k(  281) = (   0.4000000   0.4500000  -0.5000000), wk =   0.0060000
        k(  282) = (   0.4000000  -0.5000000  -0.5000000), wk =   0.0015000
        k(  283) = (   0.4500000   0.4500000   0.4500000), wk =   0.0020000
        k(  284) = (   0.4500000   0.4500000  -0.5000000), wk =   0.0030000
        k(  285) = (   0.4500000  -0.5000000  -0.5000000), wk =   0.0015000
        k(  286) = (  -0.5000000  -0.5000000  -0.5000000), wk =   0.0002500

     Dense  grid:   167037 G-vectors     FFT dimensions: (  72,  72,  72)

     Smooth grid:    58893 G-vectors     FFT dimensions: (  50,  50,  50)

     Dynamical RAM for                 wfc:       0.16 MB

     Dynamical RAM for     wfc (w. buffer):       0.16 MB

     Dynamical RAM for           str. fact:       0.36 MB

     Dynamical RAM for           local pot:       0.00 MB

     Dynamical RAM for          nlocal pot:       0.45 MB

     Dynamical RAM for                qrad:       1.00 MB

     Dynamical RAM for          rho,v,vnew:       1.26 MB

     Dynamical RAM for           G-vectors:       0.71 MB

     Dynamical RAM for          h,s,v(r/c):       0.07 MB

     Dynamical RAM for          <psi|beta>:       0.02 MB

     Dynamical RAM for                 psi:       0.32 MB

     Dynamical RAM for                hpsi:       0.32 MB

     Dynamical RAM for                spsi:       0.32 MB

     Dynamical RAM for      wfcinit/wfcrot:       0.47 MB

     Dynamical RAM for           addusdens:      10.01 MB

     Estimated static dynamical RAM per process >       5.69 MB

     Estimated max dynamical RAM per process >      15.70 MB

     Estimated total dynamical RAM >     219.79 MB

     Check: negative core charge=   -0.000001

     The potential is recalculated from file :
     ./out/AC_Ph_1.save/charge-density

     Starting wfcs are   28 randomized atomic wfcs

     Band Structure Calculation
     Davidson diagonalization with overlap

     Computing kpt #:     1  of   286
     total cpu time spent up to now is        3.7 secs

     Computing kpt #:     2  of   286
     total cpu time spent up to now is        4.6 secs

     Computing kpt #:     3  of   286
     total cpu time spent up to now is        5.4 secs

     Computing kpt #:     4  of   286
     total cpu time spent up to now is        6.3 secs

     Computing kpt #:     5  of   286
     total cpu time spent up to now is        7.2 secs

     Computing kpt #:     6  of   286
     total cpu time spent up to now is        8.1 secs

     Computing kpt #:     7  of   286
     total cpu time spent up to now is        9.0 secs

     Computing kpt #:     8  of   286
     total cpu time spent up to now is        9.9 secs

     Computing kpt #:     9  of   286
     total cpu time spent up to now is       10.8 secs

     Computing kpt #:    10  of   286
     total cpu time spent up to now is       11.7 secs

     Computing kpt #:    11  of   286
     total cpu time spent up to now is       12.6 secs

     Computing kpt #:    12  of   286
     total cpu time spent up to now is       13.5 secs

     Computing kpt #:    13  of   286
     total cpu time spent up to now is       14.3 secs

     Computing kpt #:    14  of   286
     total cpu time spent up to now is       15.2 secs

     Computing kpt #:    15  of   286
     total cpu time spent up to now is       16.1 secs

     Computing kpt #:    16  of   286
     total cpu time spent up to now is       17.0 secs

     Computing kpt #:    17  of   286
     total cpu time spent up to now is       17.9 secs

     Computing kpt #:    18  of   286
     total cpu time spent up to now is       18.8 secs

     Computing kpt #:    19  of   286
     total cpu time spent up to now is       19.7 secs

     Computing kpt #:    20  of   286
     total cpu time spent up to now is       21.0 secs

     Computing kpt #:    21  of   286
     total cpu time spent up to now is       22.1 secs

     Computing kpt #:    22  of   286
     total cpu time spent up to now is       23.0 secs

     Computing kpt #:    23  of   286
     total cpu time spent up to now is       24.0 secs

     Computing kpt #:    24  of   286
     total cpu time spent up to now is       25.1 secs

     Computing kpt #:    25  of   286
     total cpu time spent up to now is       26.1 secs

     Computing kpt #:    26  of   286
     total cpu time spent up to now is       27.0 secs

     Computing kpt #:    27  of   286
     total cpu time spent up to now is       27.9 secs

     Computing kpt #:    28  of   286
     total cpu time spent up to now is       28.8 secs

     Computing kpt #:    29  of   286
     total cpu time spent up to now is       29.7 secs

     Computing kpt #:    30  of   286
     total cpu time spent up to now is       30.7 secs

     Computing kpt #:    31  of   286
     total cpu time spent up to now is       31.6 secs

     Computing kpt #:    32  of   286
     total cpu time spent up to now is       32.5 secs

     Computing kpt #:    33  of   286
     total cpu time spent up to now is       33.4 secs

     Computing kpt #:    34  of   286
     total cpu time spent up to now is       34.3 secs

     Computing kpt #:    35  of   286
     total cpu time spent up to now is       35.2 secs

     Computing kpt #:    36  of   286
     total cpu time spent up to now is       36.2 secs

     Computing kpt #:    37  of   286
     total cpu time spent up to now is       37.2 secs

     Computing kpt #:    38  of   286
     total cpu time spent up to now is       38.1 secs

     Computing kpt #:    39  of   286
     total cpu time spent up to now is       39.0 secs

     Computing kpt #:    40  of   286
     total cpu time spent up to now is       39.9 secs

     Computing kpt #:    41  of   286
     total cpu time spent up to now is       40.9 secs

     Computing kpt #:    42  of   286
     total cpu time spent up to now is       42.2 secs

     Computing kpt #:    43  of   286
     total cpu time spent up to now is       43.3 secs

     Computing kpt #:    44  of   286
     total cpu time spent up to now is       44.4 secs

     Computing kpt #:    45  of   286
     total cpu time spent up to now is       45.4 secs

     Computing kpt #:    46  of   286
     total cpu time spent up to now is       46.3 secs

     Computing kpt #:    47  of   286
     total cpu time spent up to now is       47.3 secs

     Computing kpt #:    48  of   286
     total cpu time spent up to now is       48.2 secs

     Computing kpt #:    49  of   286
     total cpu time spent up to now is       49.3 secs

     Computing kpt #:    50  of   286
     total cpu time spent up to now is       50.3 secs

     Computing kpt #:    51  of   286
     total cpu time spent up to now is       51.3 secs

     Computing kpt #:    52  of   286
     total cpu time spent up to now is       52.2 secs

     Computing kpt #:    53  of   286
     total cpu time spent up to now is       53.3 secs

     Computing kpt #:    54  of   286
     total cpu time spent up to now is       54.3 secs

     Computing kpt #:    55  of   286
     total cpu time spent up to now is       55.3 secs

     Computing kpt #:    56  of   286
     total cpu time spent up to now is       56.2 secs

     Computing kpt #:    57  of   286
     total cpu time spent up to now is       57.2 secs

     Computing kpt #:    58  of   286
     total cpu time spent up to now is       58.3 secs

     Computing kpt #:    59  of   286
     total cpu time spent up to now is       59.2 secs

     Computing kpt #:    60  of   286
     total cpu time spent up to now is       60.1 secs

     Computing kpt #:    61  of   286
     total cpu time spent up to now is       61.0 secs

     Computing kpt #:    62  of   286
     total cpu time spent up to now is       61.9 secs

     Computing kpt #:    63  of   286
     total cpu time spent up to now is       62.8 secs

     Computing kpt #:    64  of   286
     total cpu time spent up to now is       63.7 secs

     Computing kpt #:    65  of   286
     total cpu time spent up to now is       64.6 secs

     Computing kpt #:    66  of   286
     total cpu time spent up to now is       65.4 secs

     Computing kpt #:    67  of   286
     total cpu time spent up to now is       66.4 secs

     Computing kpt #:    68  of   286
     total cpu time spent up to now is       67.3 secs

     Computing kpt #:    69  of   286
     total cpu time spent up to now is       68.2 secs

     Computing kpt #:    70  of   286
     total cpu time spent up to now is       69.1 secs

     Computing kpt #:    71  of   286
     total cpu time spent up to now is       69.9 secs

     Computing kpt #:    72  of   286
     total cpu time spent up to now is       70.8 secs

     Computing kpt #:    73  of   286
     total cpu time spent up to now is       71.7 secs

     Computing kpt #:    74  of   286
     total cpu time spent up to now is       72.6 secs

     Computing kpt #:    75  of   286
     total cpu time spent up to now is       73.6 secs

     Computing kpt #:    76  of   286
     total cpu time spent up to now is       74.5 secs

     Computing kpt #:    77  of   286
     total cpu time spent up to now is       75.3 secs

     Computing kpt #:    78  of   286
     total cpu time spent up to now is       76.2 secs

     Computing kpt #:    79  of   286
     total cpu time spent up to now is       77.1 secs

     Computing kpt #:    80  of   286
     total cpu time spent up to now is       78.0 secs

     Computing kpt #:    81  of   286
     total cpu time spent up to now is       78.8 secs

     Computing kpt #:    82  of   286
     total cpu time spent up to now is       79.7 secs

     Computing kpt #:    83  of   286
     total cpu time spent up to now is       80.7 secs

     Computing kpt #:    84  of   286
     total cpu time spent up to now is       81.6 secs

     Computing kpt #:    85  of   286
     total cpu time spent up to now is       82.5 secs

     Computing kpt #:    86  of   286
     total cpu time spent up to now is       83.3 secs

     Computing kpt #:    87  of   286
     total cpu time spent up to now is       84.2 secs

     Computing kpt #:    88  of   286
     total cpu time spent up to now is       85.1 secs

     Computing kpt #:    89  of   286
     total cpu time spent up to now is       86.0 secs

     Computing kpt #:    90  of   286
     total cpu time spent up to now is       86.9 secs

     Computing kpt #:    91  of   286
     total cpu time spent up to now is       87.9 secs

     Computing kpt #:    92  of   286
     total cpu time spent up to now is       88.9 secs

     Computing kpt #:    93  of   286
     total cpu time spent up to now is       89.8 secs

     Computing kpt #:    94  of   286
     total cpu time spent up to now is       90.7 secs

     Computing kpt #:    95  of   286
     total cpu time spent up to now is       91.6 secs

     Computing kpt #:    96  of   286
     total cpu time spent up to now is       92.5 secs

     Computing kpt #:    97  of   286
     total cpu time spent up to now is       93.4 secs

     Computing kpt #:    98  of   286
     total cpu time spent up to now is       94.4 secs

     Computing kpt #:    99  of   286
     total cpu time spent up to now is       95.4 secs

     Computing kpt #:   100  of   286
     total cpu time spent up to now is       96.4 secs

     Computing kpt #:   101  of   286
     total cpu time spent up to now is       97.3 secs

     Computing kpt #:   102  of   286
     total cpu time spent up to now is       98.4 secs

     Computing kpt #:   103  of   286
     total cpu time spent up to now is       99.4 secs

     Computing kpt #:   104  of   286
     total cpu time spent up to now is      100.4 secs

     Computing kpt #:   105  of   286
     total cpu time spent up to now is      101.4 secs

     Computing kpt #:   106  of   286
     total cpu time spent up to now is      102.3 secs

     Computing kpt #:   107  of   286
     total cpu time spent up to now is      103.3 secs

     Computing kpt #:   108  of   286
     total cpu time spent up to now is      104.4 secs

     Computing kpt #:   109  of   286
     total cpu time spent up to now is      105.4 secs

     Computing kpt #:   110  of   286
     total cpu time spent up to now is      106.4 secs

     Computing kpt #:   111  of   286
     total cpu time spent up to now is      107.3 secs

     Computing kpt #:   112  of   286
     total cpu time spent up to now is      108.3 secs

     Computing kpt #:   113  of   286
     total cpu time spent up to now is      109.3 secs

     Computing kpt #:   114  of   286
     total cpu time spent up to now is      110.2 secs

     Computing kpt #:   115  of   286
     total cpu time spent up to now is      111.1 secs

     Computing kpt #:   116  of   286
     total cpu time spent up to now is      112.0 secs

     Computing kpt #:   117  of   286
     total cpu time spent up to now is      112.9 secs

     Computing kpt #:   118  of   286
     total cpu time spent up to now is      113.8 secs

     Computing kpt #:   119  of   286
     total cpu time spent up to now is      114.7 secs

     Computing kpt #:   120  of   286
     total cpu time spent up to now is      115.6 secs

     Computing kpt #:   121  of   286
     total cpu time spent up to now is      116.4 secs

     Computing kpt #:   122  of   286
     total cpu time spent up to now is      117.3 secs

     Computing kpt #:   123  of   286
     total cpu time spent up to now is      118.1 secs

     Computing kpt #:   124  of   286
     total cpu time spent up to now is      119.0 secs

     Computing kpt #:   125  of   286
     total cpu time spent up to now is      119.9 secs

     Computing kpt #:   126  of   286
     total cpu time spent up to now is      120.7 secs

     Computing kpt #:   127  of   286
     total cpu time spent up to now is      121.6 secs

     Computing kpt #:   128  of   286
     total cpu time spent up to now is      122.5 secs

     Computing kpt #:   129  of   286
     total cpu time spent up to now is      123.5 secs

     Computing kpt #:   130  of   286
     total cpu time spent up to now is      124.4 secs

     Computing kpt #:   131  of   286
     total cpu time spent up to now is      125.3 secs

     Computing kpt #:   132  of   286
     total cpu time spent up to now is      126.2 secs

     Computing kpt #:   133  of   286
     total cpu time spent up to now is      127.1 secs

     Computing kpt #:   134  of   286
     total cpu time spent up to now is      128.0 secs

     Computing kpt #:   135  of   286
     total cpu time spent up to now is      128.9 secs

     Computing kpt #:   136  of   286
     total cpu time spent up to now is      129.8 secs

     Computing kpt #:   137  of   286
     total cpu time spent up to now is      130.9 secs

     Computing kpt #:   138  of   286
     total cpu time spent up to now is      131.9 secs

     Computing kpt #:   139  of   286
     total cpu time spent up to now is      132.7 secs

     Computing kpt #:   140  of   286
     total cpu time spent up to now is      133.6 secs

     Computing kpt #:   141  of   286
     total cpu time spent up to now is      134.5 secs

     Computing kpt #:   142  of   286
     total cpu time spent up to now is      135.4 secs

     Computing kpt #:   143  of   286
     total cpu time spent up to now is      136.4 secs

     Computing kpt #:   144  of   286
     total cpu time spent up to now is      137.5 secs

     Computing kpt #:   145  of   286
     total cpu time spent up to now is      138.4 secs

     Computing kpt #:   146  of   286
     total cpu time spent up to now is      139.3 secs

     Computing kpt #:   147  of   286
     total cpu time spent up to now is      140.2 secs

     Computing kpt #:   148  of   286
     total cpu time spent up to now is      141.2 secs

     Computing kpt #:   149  of   286
     total cpu time spent up to now is      142.3 secs

     Computing kpt #:   150  of   286
     total cpu time spent up to now is      143.3 secs

     Computing kpt #:   151  of   286
     total cpu time spent up to now is      144.2 secs

     Computing kpt #:   152  of   286
     total cpu time spent up to now is      145.3 secs

     Computing kpt #:   153  of   286
     total cpu time spent up to now is      146.4 secs

     Computing kpt #:   154  of   286
     total cpu time spent up to now is      147.5 secs

     Computing kpt #:   155  of   286
     total cpu time spent up to now is      148.5 secs

     Computing kpt #:   156  of   286
     total cpu time spent up to now is      149.4 secs

     Computing kpt #:   157  of   286
     total cpu time spent up to now is      150.5 secs

     Computing kpt #:   158  of   286
     total cpu time spent up to now is      151.5 secs

     Computing kpt #:   159  of   286
     total cpu time spent up to now is      152.4 secs

     Computing kpt #:   160  of   286
     total cpu time spent up to now is      153.3 secs

     Computing kpt #:   161  of   286
     total cpu time spent up to now is      154.2 secs

     Computing kpt #:   162  of   286
     total cpu time spent up to now is      155.1 secs

     Computing kpt #:   163  of   286
     total cpu time spent up to now is      155.9 secs

     Computing kpt #:   164  of   286
     total cpu time spent up to now is      156.8 secs

     Computing kpt #:   165  of   286
     total cpu time spent up to now is      157.7 secs

     Computing kpt #:   166  of   286
     total cpu time spent up to now is      158.6 secs

     Computing kpt #:   167  of   286
     total cpu time spent up to now is      159.4 secs

     Computing kpt #:   168  of   286
     total cpu time spent up to now is      160.3 secs

     Computing kpt #:   169  of   286
     total cpu time spent up to now is      161.2 secs

     Computing kpt #:   170  of   286
     total cpu time spent up to now is      162.2 secs

     Computing kpt #:   171  of   286
     total cpu time spent up to now is      163.2 secs

     Computing kpt #:   172  of   286
     total cpu time spent up to now is      164.2 secs

     Computing kpt #:   173  of   286
     total cpu time spent up to now is      165.3 secs

     Computing kpt #:   174  of   286
     total cpu time spent up to now is      166.3 secs

     Computing kpt #:   175  of   286
     total cpu time spent up to now is      167.2 secs

     Computing kpt #:   176  of   286
     total cpu time spent up to now is      168.2 secs

     Computing kpt #:   177  of   286
     total cpu time spent up to now is      169.1 secs

     Computing kpt #:   178  of   286
     total cpu time spent up to now is      170.1 secs

     Computing kpt #:   179  of   286
     total cpu time spent up to now is      171.2 secs

     Computing kpt #:   180  of   286
     total cpu time spent up to now is      172.3 secs

     Computing kpt #:   181  of   286
     total cpu time spent up to now is      173.3 secs

     Computing kpt #:   182  of   286
     total cpu time spent up to now is      174.2 secs

     Computing kpt #:   183  of   286
     total cpu time spent up to now is      175.2 secs

     Computing kpt #:   184  of   286
     total cpu time spent up to now is      176.2 secs

     Computing kpt #:   185  of   286
     total cpu time spent up to now is      177.4 secs

     Computing kpt #:   186  of   286
     total cpu time spent up to now is      178.5 secs

     Computing kpt #:   187  of   286
     total cpu time spent up to now is      179.5 secs

     Computing kpt #:   188  of   286
     total cpu time spent up to now is      180.6 secs

     Computing kpt #:   189  of   286
     total cpu time spent up to now is      181.7 secs

     Computing kpt #:   190  of   286
     total cpu time spent up to now is      182.8 secs

     Computing kpt #:   191  of   286
     total cpu time spent up to now is      183.8 secs

     Computing kpt #:   192  of   286
     total cpu time spent up to now is      184.7 secs

     Computing kpt #:   193  of   286
     total cpu time spent up to now is      185.8 secs

     Computing kpt #:   194  of   286
     total cpu time spent up to now is      186.7 secs

     Computing kpt #:   195  of   286
     total cpu time spent up to now is      187.6 secs

     Computing kpt #:   196  of   286
     total cpu time spent up to now is      188.6 secs

     Computing kpt #:   197  of   286
     total cpu time spent up to now is      189.5 secs

     Computing kpt #:   198  of   286
     total cpu time spent up to now is      190.4 secs

     Computing kpt #:   199  of   286
     total cpu time spent up to now is      191.3 secs

     Computing kpt #:   200  of   286
     total cpu time spent up to now is      192.2 secs

     Computing kpt #:   201  of   286
     total cpu time spent up to now is      193.1 secs

     Computing kpt #:   202  of   286
     total cpu time spent up to now is      194.1 secs

     Computing kpt #:   203  of   286
     total cpu time spent up to now is      195.0 secs

     Computing kpt #:   204  of   286
     total cpu time spent up to now is      195.9 secs

     Computing kpt #:   205  of   286
     total cpu time spent up to now is      196.8 secs

     Computing kpt #:   206  of   286
     total cpu time spent up to now is      197.9 secs

     Computing kpt #:   207  of   286
     total cpu time spent up to now is      199.0 secs

     Computing kpt #:   208  of   286
     total cpu time spent up to now is      200.1 secs

     Computing kpt #:   209  of   286
     total cpu time spent up to now is      201.1 secs

     Computing kpt #:   210  of   286
     total cpu time spent up to now is      202.0 secs

     Computing kpt #:   211  of   286
     total cpu time spent up to now is      202.9 secs

     Computing kpt #:   212  of   286
     total cpu time spent up to now is      203.9 secs

     Computing kpt #:   213  of   286
     total cpu time spent up to now is      204.9 secs

     Computing kpt #:   214  of   286
     total cpu time spent up to now is      206.0 secs

     Computing kpt #:   215  of   286
     total cpu time spent up to now is      207.0 secs

     Computing kpt #:   216  of   286
     total cpu time spent up to now is      208.1 secs

     Computing kpt #:   217  of   286
     total cpu time spent up to now is      209.1 secs

     Computing kpt #:   218  of   286
     total cpu time spent up to now is      210.2 secs

     Computing kpt #:   219  of   286
     total cpu time spent up to now is      211.1 secs

     Computing kpt #:   220  of   286
     total cpu time spent up to now is      212.1 secs

     Computing kpt #:   221  of   286
     total cpu time spent up to now is      213.0 secs

     Computing kpt #:   222  of   286
     total cpu time spent up to now is      214.0 secs

     Computing kpt #:   223  of   286
     total cpu time spent up to now is      214.9 secs

     Computing kpt #:   224  of   286
     total cpu time spent up to now is      215.9 secs

     Computing kpt #:   225  of   286
     total cpu time spent up to now is      216.8 secs

     Computing kpt #:   226  of   286
     total cpu time spent up to now is      217.7 secs

     Computing kpt #:   227  of   286
     total cpu time spent up to now is      218.7 secs

     Computing kpt #:   228  of   286
     total cpu time spent up to now is      219.6 secs

     Computing kpt #:   229  of   286
     total cpu time spent up to now is      220.6 secs

     Computing kpt #:   230  of   286
     total cpu time spent up to now is      221.5 secs

     Computing kpt #:   231  of   286
     total cpu time spent up to now is      222.5 secs

     Computing kpt #:   232  of   286
     total cpu time spent up to now is      223.4 secs

     Computing kpt #:   233  of   286
     total cpu time spent up to now is      224.5 secs

     Computing kpt #:   234  of   286
     total cpu time spent up to now is      225.5 secs

     Computing kpt #:   235  of   286
     total cpu time spent up to now is      226.5 secs

     Computing kpt #:   236  of   286
     total cpu time spent up to now is      227.4 secs

     Computing kpt #:   237  of   286
[...]
    -6.6830  -6.6232  -6.4801  -6.4081  -2.4215  -2.3860  -2.0130  -1.9842
     4.3244   5.1831   5.8370   6.2855

          k = 0.2000 0.3000 0.4500 (  7387 PWs)   bands (ev):

   -16.7946 -16.7356 -16.5751 -16.5590  -7.5408  -7.5299  -7.2923  -7.2210
    -6.6612  -6.6287  -6.4601  -6.4219  -2.4119  -2.3930  -2.0075  -1.9932
     4.5380   4.9821   5.9309   6.1749

          k = 0.2000 0.3000-0.5000 (  7378 PWs)   bands (ev):

   -16.7646 -16.7646 -16.5675 -16.5675  -7.5362  -7.5362  -7.2609  -7.2609
    -6.6422  -6.6422  -6.4398  -6.4398  -2.4020  -2.4020  -2.0010  -2.0010
     4.7605   4.7605   6.0501   6.0501

          k = 0.2000 0.3500 0.3500 (  7371 PWs)   bands (ev):

   -16.8288 -16.6934 -16.5906 -16.5513  -7.5458  -7.5207  -7.3367  -7.1762
    -6.6773  -6.6035  -6.4895  -6.4019  -2.4208  -2.3788  -2.0147  -1.9823
     4.2899   5.3529   5.7086   6.2447

          k = 0.2000 0.3500 0.4000 (  7383 PWs)   bands (ev):

   -16.8031 -16.7067 -16.5922 -16.5616  -7.5462  -7.5275  -7.3357  -7.2238
    -6.6526  -6.5956  -6.4737  -6.4082  -2.4104  -2.3795  -2.0113  -1.9901
     4.4744   5.2844   5.6723   6.1306

          k = 0.2000 0.3500 0.4500 (  7390 PWs)   bands (ev):

   -16.7766 -16.7266 -16.5883 -16.5717  -7.5442  -7.5341  -7.3231  -7.2654
    -6.6300  -6.5990  -6.4548  -6.4199  -2.4000  -2.3835  -2.0075  -1.9970
     4.6750   5.0993   5.7539   6.0025

          k = 0.2000 0.3500-0.5000 (  7388 PWs)   bands (ev):

   -16.7506 -16.7506 -16.5809 -16.5809  -7.5400  -7.5400  -7.2992  -7.2992
    -6.6114  -6.6114  -6.4360  -6.4360  -2.3906  -2.3906  -2.0028  -2.0028
     4.8866   4.8866   5.8728   5.8728

          k = 0.2000 0.4000 0.4000 (  7358 PWs)   bands (ev):

   -16.7807 -16.7099 -16.5989 -16.5732  -7.5461  -7.5304  -7.3489  -7.2691
    -6.6224  -6.5742  -6.4685  -6.4152  -2.3990  -2.3760  -2.0098  -1.9958
     4.6416   5.3335   5.5472   5.9868

          k = 0.2000 0.4000 0.4500 (  7388 PWs)   bands (ev):

   -16.7584 -16.7206 -16.5990 -16.5842  -7.5442  -7.5354  -7.3465  -7.3049
    -6.5998  -6.5730  -6.4537  -6.4246  -2.3889  -2.3766  -2.0077  -2.0008
     4.8277   5.2241   5.5687   5.8373

          k = 0.2000 0.4000-0.5000 (  7384 PWs)   bands (ev):

   -16.7376 -16.7376 -16.5934 -16.5934  -7.5403  -7.5403  -7.3315  -7.3315
    -6.5826  -6.5826  -6.4380  -6.4380  -2.3811  -2.3811  -2.0048  -2.0048
     5.0260   5.0260   5.6939   5.6939

          k = 0.2000 0.4500 0.4500 (  7376 PWs)   bands (ev):

   -16.7414 -16.7206 -16.6044 -16.5952  -7.5416  -7.5361  -7.3581  -7.3358
    -6.5743  -6.5575  -6.4521  -6.4342  -2.3800  -2.3734  -2.0075  -2.0041
     4.9935   5.3094   5.4303   5.6794

          k = 0.2000 0.4500-0.5000 (  7380 PWs)   bands (ev):

   -16.7279 -16.7279 -16.6028 -16.6028  -7.5388  -7.5388  -7.3535  -7.3535
    -6.5608  -6.5608  -6.4430  -6.4430  -2.3747  -2.3747  -2.0063  -2.0063
     5.1755   5.1755   5.5197   5.5197

          k = 0.2000-0.5000-0.5000 (  7368 PWs)   bands (ev):

   -16.7242 -16.7242 -16.6064 -16.6064  -7.5379  -7.5379  -7.3614  -7.3614
    -6.5522  -6.5522  -6.4458  -6.4458  -2.3724  -2.3724  -2.0069  -2.0069
     5.3001   5.3001   5.3868   5.3868

          k = 0.2500 0.2500 0.2500 (  7394 PWs)   bands (ev):

   -16.9078 -16.6547 -16.5779 -16.5249  -7.5422  -7.5072  -7.3314  -7.0089
    -6.7459  -6.6644  -6.5165  -6.3910  -2.4363  -2.3742  -2.0286  -1.9511
     3.7512   5.3392   6.0127   6.0989

          k = 0.2500 0.2500 0.3000 (  7382 PWs)   bands (ev):

   -16.8839 -16.6658 -16.5823 -16.5329  -7.5459  -7.5134  -7.3364  -7.0659
    -6.7251  -6.6408  -6.5066  -6.3887  -2.4336  -2.3735  -2.0232  -1.9621
     3.9084   5.3481   5.9584   6.1798

          k = 0.2500 0.2500 0.3500 (  7383 PWs)   bands (ev):

   -16.8570 -16.6843 -16.5822 -16.5409  -7.5480  -7.5197  -7.3344  -7.1227
    -6.7018  -6.6223  -6.4954  -6.3926  -2.4275  -2.3754  -2.0183  -1.9733
     4.0879   5.2866   5.9116   6.2598

          k = 0.2500 0.2500 0.4000 (  7392 PWs)   bands (ev):

   -16.8280 -16.7086 -16.5784 -16.5491  -7.5480  -7.5267  -7.3226  -7.1765
    -6.6774  -6.6146  -6.4796  -6.4026  -2.4187  -2.3801  -2.0136  -1.9840
     4.2861   5.1383   5.9380   6.2674

          k = 0.2500 0.2500 0.4500 (  7382 PWs)   bands (ev):

   -16.7976 -16.7367 -16.5723 -16.5572  -7.5455  -7.5340  -7.3000  -7.2253
    -6.6537  -6.6192  -6.4594  -6.4181  -2.4082  -2.3877  -2.0081  -1.9935
     4.4986   4.9382   6.0144   6.2047

          k = 0.2500 0.2500-0.5000 (  7398 PWs)   bands (ev):

   -16.7668 -16.7668 -16.5651 -16.5651  -7.5406  -7.5406  -7.2671  -7.2671
    -6.6334  -6.6334  -6.4378  -6.4378  -2.3974  -2.3974  -2.0016  -2.0016
     4.7192   4.7192   6.1108   6.1108

          k = 0.2500 0.3000 0.3000 (  7386 PWs)   bands (ev):

   -16.8616 -16.6713 -16.5894 -16.5417  -7.5512  -7.5224  -7.3501  -7.1217
    -6.6994  -6.6139  -6.4956  -6.3839  -2.4261  -2.3682  -2.0190  -1.9716
     4.0513   5.3736   5.9099   6.1386

          k = 0.2500 0.3000 0.3500 (  7383 PWs)   bands (ev):

   -16.8367 -16.6838 -16.5920 -16.5507  -7.5547  -7.5308  -7.3564  -7.1762
    -6.6728  -6.5931  -6.4832  -6.3851  -2.4158  -2.3657  -2.0155  -1.9812
     4.2160   5.3429   5.8196   6.1382

          k = 0.2500 0.3000 0.4000 (  7386 PWs)   bands (ev):

   -16.8099 -16.7032 -16.5898 -16.5596  -7.5563  -7.5386  -7.3522  -7.2270
    -6.6464  -6.5841  -6.4662  -6.3926  -2.4038  -2.3668  -2.0124  -1.9902
     4.4000   5.2133   5.8109   6.1032

          k = 0.2500 0.3000 0.4500 (  7390 PWs)   bands (ev):

   -16.7820 -16.7273 -16.5843 -16.5685  -7.5553  -7.5457  -7.3363  -7.2720
    -6.6220  -6.5880  -6.4454  -6.4060  -2.3915  -2.3718  -2.0088  -1.9980
     4.5995   5.0206   5.8677   6.0341

          k = 0.2500 0.3000-0.5000 (  7390 PWs)   bands (ev):

   -16.7541 -16.7541 -16.5769 -16.5769  -7.5516  -7.5516  -7.3091  -7.3091
    -6.6017  -6.6017  -6.4242  -6.4242  -2.3803  -2.3803  -2.0042  -2.0042
     4.8094   4.8094   5.9496   5.9496

          k = 0.2500 0.3500 0.3500 (  7383 PWs)   bands (ev):

   -16.8141 -16.6885 -16.5987 -16.5606  -7.5593  -7.5391  -7.3725  -7.2287
    -6.6424  -6.5666  -6.4732  -6.3845  -2.4022  -2.3586  -2.0138  -1.9893
     4.3645   5.3634   5.7048   6.0479

          k = 0.2500 0.3500 0.4000 (  7379 PWs)   bands (ev):

   -16.7900 -16.7004 -16.6001 -16.5706  -7.5617  -7.5466  -7.3772  -7.2761
    -6.6143  -6.5547  -6.4573  -6.3896  -2.3878  -2.3555  -2.0124  -1.9968
     4.5324   5.2894   5.6490   5.9664

          k = 0.2500 0.3500 0.4500 (  7388 PWs)   bands (ev):

   -16.7652 -16.7187 -16.5963 -16.5803  -7.5614  -7.5531  -7.3691  -7.3168
    -6.5894  -6.5568  -6.4373  -6.4008  -2.3745  -2.3573  -2.0106  -2.0031
     4.7169   5.1136   5.6981   5.8757

          k = 0.2500 0.3500-0.5000 (  7378 PWs)   bands (ev):

   -16.7410 -16.7410 -16.5892 -16.5892  -7.5583  -7.5583  -7.3484  -7.3484
    -6.5694  -6.5694  -6.4174  -6.4174  -2.3638  -2.3638  -2.0076  -2.0076
     4.9136   4.9136   5.7825   5.7825

          k = 0.2500 0.4000 0.4000 (  7378 PWs)   bands (ev):

   -16.7691 -16.7031 -16.6062 -16.5816  -7.5641  -7.5514  -7.3929  -7.3205
    -6.5835  -6.5331  -6.4493  -6.3938  -2.3722  -2.3481  -2.0128  -2.0030
     4.6821   5.3237   5.5154   5.8466

          k = 0.2500 0.4000 0.4500 (  7375 PWs)   bands (ev):

   -16.7482 -16.7129 -16.6062 -16.5920  -7.5637  -7.5565  -7.3941  -7.3560
    -6.5588  -6.5304  -6.4336  -6.4027  -2.3590  -2.3461  -2.0126  -2.0080
     4.8498   5.2139   5.5217   5.7292

          k = 0.2500 0.4000-0.5000 (  7386 PWs)   bands (ev):

   -16.7287 -16.7287 -16.6008 -16.6008  -7.5609  -7.5609  -7.3813  -7.3813
    -6.5402  -6.5402  -6.4167  -6.4167  -2.3499  -2.3499  -2.0112  -2.0112
     5.0307   5.0307   5.6173   5.6173

          k = 0.2500 0.4500 0.4500 (  7383 PWs)   bands (ev):

   -16.7322 -16.7127 -16.6112 -16.6024  -7.5629  -7.5582  -7.4069  -7.3864
    -6.5333  -6.5153  -6.4296  -6.4105  -2.3471  -2.3401  -2.0141  -2.0119
     4.9966   5.2846   5.3853   5.5924

          k = 0.2500 0.4500-0.5000 (  7388 PWs)   bands (ev):

   -16.7195 -16.7195 -16.6096 -16.6096  -7.5607  -7.5607  -7.4038  -7.4038
    -6.5185  -6.5185  -6.4198  -6.4198  -2.3405  -2.3405  -2.0140  -2.0140
     5.1589   5.1589   5.4593   5.4593

          k = 0.2500-0.5000-0.5000 (  7384 PWs)   bands (ev):

   -16.7160 -16.7160 -16.6130 -16.6130  -7.5602  -7.5602  -7.4118  -7.4118
    -6.5100  -6.5100  -6.4220  -6.4220  -2.3371  -2.3371  -2.0150  -2.0150
     5.2703   5.2703   5.3378   5.3378

          k = 0.3000 0.3000 0.3000 (  7385 PWs)   bands (ev):

   -16.8409 -16.6735 -16.5971 -16.5511  -7.5583  -7.5347  -7.3708  -7.1767
    -6.6696  -6.5831  -6.4838  -6.3764  -2.4137  -2.3581  -2.0162  -1.9804
     4.1786   5.3927   5.9224   5.9669

          k = 0.3000 0.3000 0.3500 (  7381 PWs)   bands (ev):

   -16.8179 -16.6820 -16.6010 -16.5606  -7.5634  -7.5448  -7.3845  -7.2301
    -6.6395  -6.5579  -6.4717  -6.3754  -2.3991  -2.3507  -2.0144  -1.9894
     4.3266   5.3676   5.7959   5.9493

          k = 0.3000 0.3000 0.4000 (  7372 PWs)   bands (ev):

   -16.7932 -16.6975 -16.5998 -16.5699  -7.5666  -7.5528  -7.3875  -7.2792
    -6.6103  -6.5458  -6.4549  -6.3812  -2.3836  -2.3476  -2.0133  -1.9975
     4.4936   5.2509   5.7473   5.9233

          k = 0.3000 0.3000 0.4500 (  7385 PWs)   bands (ev):

   -16.7677 -16.7184 -16.5948 -16.5790  -7.5670  -7.5594  -7.3777  -7.3217
    -6.5841  -6.5487  -6.4333  -6.3935  -2.3689  -2.3497  -2.0117  -2.0042
     4.6767   5.0697   5.7716   5.8774

          k = 0.3000 0.3000-0.5000 (  7376 PWs)   bands (ev):

   -16.7424 -16.7424 -16.5875 -16.5875  -7.5644  -7.5644  -7.3552  -7.3552
    -6.5627  -6.5627  -6.4116  -6.4116  -2.3571  -2.3571  -2.0089  -2.0089
     4.8715   4.8715   5.8224   5.8224

          k = 0.3000 0.3500 0.3500 (  7371 PWs)   bands (ev):

   -16.7971 -16.6847 -16.6075 -16.5706  -7.5698  -7.5560  -7.4055  -7.2815
    -6.6070  -6.5289  -6.4605  -6.3718  -2.3807  -2.3384  -2.0146  -1.9978
     4.4569   5.3735   5.6892   5.8470

          k = 0.3000 0.3500 0.4000 (  7378 PWs)   bands (ev):

   -16.7749 -16.6942 -16.6091 -16.5805  -7.5740  -7.5640  -7.4157  -7.3278
    -6.5768  -6.5143  -6.4442  -6.3751  -2.3623  -2.3307  -2.0154  -2.0054
     4.6059   5.2983   5.6111   5.7903

          k = 0.3000 0.3500 0.4500 (  7385 PWs)   bands (ev):

   -16.7522 -16.7101 -16.6055 -16.5900  -7.5755  -7.5698  -7.4125  -7.3666
    -6.5504  -6.5162  -6.4226  -6.3852  -2.3463  -2.3293  -2.0158  -2.0113
     4.7716   5.1349   5.6256   5.7325

          k = 0.3000 0.3500-0.5000 (  7396 PWs)   bands (ev):

   -16.7301 -16.7301 -16.5987 -16.5987  -7.5739  -7.5739  -7.3956  -7.3956
    -6.5295  -6.5295  -6.4016  -6.4016  -2.3347  -2.3347  -2.0147  -2.0147
     4.9506   4.9506   5.6745   5.6745

          k = 0.3000 0.4000 0.4000 (  7376 PWs)   bands (ev):

   -16.7557 -16.6958 -16.6147 -16.5910  -7.5786  -7.5705  -7.4344  -7.3709
    -6.5456  -6.4924  -6.4337  -6.3764  -2.3422  -2.3184  -2.0183  -2.0127
     4.7351   5.3143   5.4780   5.6933

          k = 0.3000 0.4000 0.4500 (  7393 PWs)   bands (ev):

   -16.7365 -16.7043 -16.6146 -16.6009  -7.5802  -7.5751  -7.4392  -7.4055
    -6.5197  -6.4896  -6.4163  -6.3841  -2.3258  -2.3129  -2.0206  -2.0182
     4.8815   5.2071   5.4667   5.6082

          k = 0.3000 0.4000-0.5000 (  7406 PWs)   bands (ev):

   -16.7187 -16.7187 -16.6093 -16.6093  -7.5786  -7.5786  -7.4291  -7.4291
    -6.5003  -6.5003  -6.3981  -6.3981  -2.3154  -2.3154  -2.0208  -2.0208
     5.0420   5.0420   5.5299   5.5299

          k = 0.3000 0.4500 0.4500 (  7395 PWs)   bands (ev):

   -16.7217 -16.7037 -16.6192 -16.6107  -7.5811  -7.5775  -7.4534  -7.4351
    -6.4945  -6.4753  -6.4098  -6.3896  -2.3102  -2.3032  -2.0244  -2.0234
     5.0058   5.2591   5.3383   5.4969

          k = 0.3000 0.4500-0.5000 (  7394 PWs)   bands (ev):

   -16.7099 -16.7099 -16.6176 -16.6176  -7.5797  -7.5797  -7.4518  -7.4518
    -6.4788  -6.4788  -6.3991  -6.3991  -2.3022  -2.3022  -2.0256  -2.0256
     5.1449   5.1449   5.3935   5.3935

          k = 0.3000-0.5000-0.5000 (  7404 PWs)   bands (ev):

   -16.7065 -16.7065 -16.6208 -16.6208  -7.5796  -7.5796  -7.4601  -7.4601
    -6.4705  -6.4705  -6.4005  -6.4005  -2.2974  -2.2974  -2.0275  -2.0275
     5.2391   5.2391   5.2879   5.2879

          k = 0.3500 0.3500 0.3500 (  7379 PWs)   bands (ev):

   -16.7783 -16.6841 -16.6149 -16.5807  -7.5772  -7.5693  -7.4319  -7.3314
    -6.5729  -6.4959  -6.4502  -6.3655  -2.3578  -2.3205  -2.0169  -2.0068
     4.5674   5.3713   5.6595   5.6663

          k = 0.3500 0.3500 0.4000 (  7390 PWs)   bands (ev):

   -16.7584 -16.6896 -16.6178 -16.5908  -7.5826  -7.5775  -7.4479  -7.3758
    -6.5417  -6.4782  -6.4348  -6.3665  -2.3359  -2.3077  -2.0203  -2.0151
     4.6956   5.3099   5.5496   5.6287

          k = 0.3500 0.3500 0.4500 (  7390 PWs)   bands (ev):

   -16.7382 -16.7018 -16.6153 -16.6003  -7.5856  -7.5822  -7.4502  -7.4120
    -6.5148  -6.4802  -6.4118  -6.3749  -2.3176  -2.3023  -2.0232  -2.0211
     4.8405   5.1648   5.5348   5.5918

          k = 0.3500 0.3500-0.5000 (  7406 PWs)   bands (ev):

   -16.7188 -16.7188 -16.6088 -16.6088  -7.5852  -7.5852  -7.4377  -7.4377
    -6.4937  -6.4937  -6.3904  -6.3904  -2.3058  -2.3058  -2.0238  -2.0238
     4.9992   4.9992   5.5578   5.5578

          k = 0.3500 0.4000 0.4000 (  7395 PWs)   bands (ev):

   -16.7410 -16.6892 -16.6236 -16.6009  -7.5887  -7.5853  -7.4701  -7.4175
    -6.5105  -6.4547  -6.4237  -6.3649  -2.3112  -2.2895  -2.0263  -2.0244
     4.8021   5.3059   5.4387   5.5393

          k = 0.3500 0.4000 0.4500 (  7398 PWs)   bands (ev):

   -16.7238 -16.6955 -16.6238 -16.6106  -7.5920  -7.5891  -7.4787  -7.4504
    -6.4844  -6.4533  -6.4034  -6.3708  -2.2915  -2.2795  -2.0316  -2.0311
     4.9249   5.2062   5.4079   5.4840

          k = 0.3500 0.4000-0.5000 (  7396 PWs)   bands (ev):

   -16.7079 -16.7079 -16.6187 -16.6187  -7.5916  -7.5916  -7.4717  -7.4717
    -6.4648  -6.4648  -6.3840  -6.3840  -2.2801  -2.2801  -2.0337  -2.0337
     5.0622   5.0622   5.4384   5.4384

          k = 0.3500 0.4500 0.4500 (  7395 PWs)   bands (ev):

   -16.7102 -16.6941 -16.6283 -16.6199  -7.5943  -7.5918  -7.4949  -7.4792
    -6.4600  -6.4398  -6.3948  -6.3739  -2.2715  -2.2648  -2.0391  -2.0385
     5.0237   5.2360   5.2941   5.3999

          k = 0.3500 0.4500-0.5000 (  7406 PWs)   bands (ev):

   -16.6994 -16.6994 -16.6266 -16.6266  -7.5936  -7.5936  -7.4950  -7.4950
    -6.4440  -6.4440  -6.3829  -6.3829  -2.2619  -2.2619  -2.0418  -2.0418
     5.1368   5.1368   5.3279   5.3279

          k = 0.3500-0.5000-0.5000 (  7380 PWs)   bands (ev):

   -16.6960 -16.6960 -16.6298 -16.6298  -7.5936  -7.5936  -7.5035  -7.5035
    -6.4359  -6.4359  -6.3836  -6.3836  -2.2551  -2.2551  -2.0450  -2.0450
     5.2100   5.2100   5.2424   5.2424

          k = 0.4000 0.4000 0.4000 (  7385 PWs)   bands (ev):

   -16.7257 -16.6856 -16.6306 -16.6109  -7.5954  -7.5937  -7.4966  -7.4574
    -6.4797  -6.4230  -6.4192  -6.3606  -2.2823  -2.2650  -2.0364  -2.0357
     4.8841   5.2909   5.3985   5.4051

          k = 0.4000 0.4000 0.4500 (  7400 PWs)   bands (ev):

   -16.7107 -16.6881 -16.6324 -16.6204  -7.5992  -7.5967  -7.5098  -7.4882
    -6.4545  -6.4245  -6.3950  -6.3641  -2.2593  -2.2495  -2.0457  -2.0444
     4.9817   5.2131   5.3438   5.3710

          k = 0.4000 0.4000-0.5000 (  7412 PWs)   bands (ev):

   -16.6973 -16.6973 -16.6282 -16.6282  -7.5988  -7.5988  -7.5067  -7.5067
    -6.4359  -6.4359  -6.3757  -6.3757  -2.2473  -2.2473  -2.0486  -2.0486
     5.0936   5.0936   5.3493   5.3493

          k = 0.4000 0.4500 0.4500 (  7406 PWs)   bands (ev):

   -16.6983 -16.6847 -16.6376 -16.6295  -7.6017  -7.5993  -7.5287  -7.5163
    -6.4312  -6.4109  -6.3856  -6.3649  -2.2341  -2.2282  -2.0579  -2.0564
     5.0529   5.2182   5.2570   5.3081

          k = 0.4000 0.4500-0.5000 (  7398 PWs)   bands (ev):

   -16.6886 -16.6886 -16.6363 -16.6363  -7.6008  -7.6008  -7.5310  -7.5310
    -6.4157  -6.4157  -6.3728  -6.3728  -2.2221  -2.2221  -2.0623  -2.0623
     5.1380   5.1380   5.2674   5.2674

          k = 0.4000-0.5000-0.5000 (  7396 PWs)   bands (ev):

   -16.6849 -16.6849 -16.6398 -16.6398  -7.6006  -7.6006  -7.5402  -7.5402
    -6.4077  -6.4077  -6.3729  -6.3729  -2.2121  -2.2121  -2.0683  -2.0683
     5.1867   5.1867   5.2058   5.2058

          k = 0.4500 0.4500 0.4500 (  7409 PWs)   bands (ev):

   -16.6870 -16.6779 -16.6451 -16.6388  -7.6033  -7.6008  -7.5516  -7.5438
    -6.4093  -6.3932  -6.3795  -6.3633  -2.2026  -2.1987  -2.0764  -2.0748
     5.0950   5.2045   5.2291   5.2316

          k = 0.4500 0.4500-0.5000 (  7404 PWs)   bands (ev):

   -16.6786 -16.6786 -16.6456 -16.6456  -7.6012  -7.6012  -7.5576  -7.5576
    -6.3954  -6.3954  -6.3692  -6.3692  -2.1874  -2.1874  -2.0847  -2.0847
     5.1506   5.1506   5.2164   5.2164

          k = 0.4500-0.5000-0.5000 (  7432 PWs)   bands (ev):

   -16.6734 -16.6734 -16.6505 -16.6505  -7.5991  -7.5991  -7.5689  -7.5689
    -6.3870  -6.3870  -6.3696  -6.3696  -2.1705  -2.1705  -2.0974  -2.0974
     5.1725   5.1725   5.1812   5.1812

          k =-0.5000-0.5000-0.5000 (  7400 PWs)   bands (ev):

   -16.6618 -16.6618 -16.6618 -16.6618  -7.5886  -7.5886  -7.5886  -7.5886
    -6.3742  -6.3742  -6.3742  -6.3742  -2.1317  -2.1317  -2.1317  -2.1317
     5.1702   5.1702   5.1702   5.1702

     Writing all to output data dir ./out/AC_Ph_1.save/

     init_run     :      1.11s CPU      1.15s WALL (       1 calls)
     electrons    :    268.08s CPU    271.50s WALL (       1 calls)

     Called by init_run:
     wfcinit      :      0.00s CPU      0.00s WALL (       1 calls)
     wfcinit:atom :      0.17s CPU      0.18s WALL (     286 calls)
     wfcinit:wfcr :     14.41s CPU     14.60s WALL (     286 calls)
     potinit      :      0.17s CPU      0.17s WALL (       1 calls)
     hinit0       :      0.49s CPU      0.49s WALL (       1 calls)

     Called by electrons:
     c_bands      :    268.08s CPU    271.48s WALL (       1 calls)
     v_of_rho     :      0.05s CPU      0.06s WALL (       1 calls)
     v_h          :      0.00s CPU      0.00s WALL (       1 calls)
     v_xc         :      0.05s CPU      0.05s WALL (       1 calls)
     newd         :      0.05s CPU      0.05s WALL (       1 calls)

     Called by c_bands:
     init_us_2    :      0.13s CPU      0.14s WALL (     286 calls)
     init_us_2:cp :      0.13s CPU      0.14s WALL (     286 calls)
     cegterg      :    251.99s CPU    255.00s WALL (     627 calls)

     Called by sum_band:

     Called by *egterg:
     cdiaghg      :     12.21s CPU     12.30s WALL (   10127 calls)
     cegterg:over :     38.30s CPU     38.71s WALL (    9841 calls)
     cegterg:upda :      8.80s CPU      8.83s WALL (    9841 calls)
     cegterg:last :     24.07s CPU     24.15s WALL (    5287 calls)
     h_psi        :    151.49s CPU    153.92s WALL (   10754 calls)
     s_psi        :     13.41s CPU     13.49s WALL (   10754 calls)
     g_psi        :      1.15s CPU      1.16s WALL (    9841 calls)

     Called by h_psi:
     h_psi:calbec :     29.53s CPU     30.07s WALL (   10754 calls)
     vloc_psi     :    107.99s CPU    109.79s WALL (   10754 calls)
     add_vuspsi   :     13.47s CPU     13.55s WALL (   10754 calls)

     General routines
     calbec       :     29.48s CPU     30.04s WALL (   10754 calls)
     fft          :      0.35s CPU      0.36s WALL (      13 calls)
     ffts         :      0.11s CPU      0.11s WALL (       1 calls)
     fftw         :     99.48s CPU    101.05s WALL (  232988 calls)
     interpolate  :      0.11s CPU      0.11s WALL (       1 calls)
     davcio       :      0.13s CPU      0.23s WALL (     572 calls)

     Parallel routines

     PWSCF        :   4m32.46s CPU   4m37.97s WALL


   This run was terminated on:   3:16:13  14Dec2022            

=------------------------------------------------------------------------------=
   JOB DONE.
=------------------------------------------------------------------------------=
