
     Program PWSCF v.7.1 starts on 14Dec2022 at  4: 0:40 

     This program is part of the open-source Quantum ESPRESSO suite
     for quantum simulation of materials; please cite
         "P. Giannozzi et al., J. Phys.:Condens. Matter 21 395502 (2009);
         "P. Giannozzi et al., J. Phys.:Condens. Matter 29 465901 (2017);
         "P. Giannozzi et al., J. Chem. Phys. 152 154105 (2020);
          URL http://www.quantum-espresso.org", 
     in publications or presentations arising from this work. More details at
     http://www.quantum-espresso.org/quote

     Parallel version (MPI), running on    14 processors

     MPI processes distributed on     1 nodes
     24563 MiB available memory on the printing compute node when the environment starts

     Reading input from pwband.in

     Current dimensions of program PWSCF are:
     Max number of different atomic species (ntypx) = 10
     Max number of k-points (npk) =  40000
     Max angular momentum in pseudopotentials (lmaxx) =  4

     Atomic positions and unit cell read from directory:
     ./out/AC_Ph_1.save/

     Message from routine setup:
     using ibrav=0 with symmetry is DISCOURAGED, use correct ibrav instead

     R & G space division:  proc/nbgrp/npool/nimage =      14
     Subspace diagonalization in iterative solution of the eigenvalue problem:
     a serial algorithm will be used


     Parallelization info
     --------------------
     sticks:   dense  smooth     PW     G-vecs:    dense   smooth      PW
     Min         262     130     36                11930     4206     622
     Max         263     131     37                11933     4207     625
     Sum        3673    1829    509               167037    58893    8733

     Using Slab Decomposition



     bravais-lattice index     =            0
     lattice parameter (alat)  =       9.7982  a.u.
     unit-cell volume          =     940.6821 (a.u.)^3
     number of atoms/cell      =           16
     number of atomic types    =            2
     number of electrons       =        32.00
     number of Kohn-Sham states=           20
     kinetic-energy cutoff     =      60.0000  Ry
     charge density cutoff     =     480.0000  Ry
     Exchange-correlation= PBE
                           (   1   4   3   4   0   0   0)

     celldm(1)=   9.798230  celldm(2)=   0.000000  celldm(3)=   0.000000
     celldm(4)=   0.000000  celldm(5)=   0.000000  celldm(6)=   0.000000

     crystal axes: (cart. coord. in units of alat)
               a(1) = (   1.000000   0.000000   0.000000 )  
               a(2) = (   0.000000   1.000000   0.000000 )  
               a(3) = (   0.000000   0.000000   1.000000 )  

     reciprocal axes: (cart. coord. in units 2 pi/alat)
               b(1) = (  1.000000  0.000000  0.000000 )  
               b(2) = (  0.000000  1.000000  0.000000 )  
               b(3) = (  0.000000  0.000000  1.000000 )  


     PseudoPot. # 1 for H  read from file:
     ./pseudo/H.pbe-rrkjus_psl.1.0.0.UPF
     MD5 check sum: 3f4114867bd07edc7f1424d066fc1888
     Pseudo is Ultrasoft, Zval =  1.0
     Generated using &quot;atomic&quot; code by A. Dal Corso  v.6.3MaX
     Using radial grid of  929 points,  2 beta functions with: 
                l(1) =   0
                l(2) =   0
     Q(r) pseudized with 0 coefficients 


     PseudoPot. # 2 for N  read from file:
     ./pseudo/N.pbe-n-rrkjus_psl.1.0.0.UPF
     MD5 check sum: ada94e3ed05223de5319d0572dc76806
     Pseudo is Ultrasoft + core correction, Zval =  5.0
     Generated using &quot;atomic&quot; code by A. Dal Corso  v.6.3MaX
     Using radial grid of 1085 points,  4 beta functions with: 
                l(1) =   0
                l(2) =   0
                l(3) =   1
                l(4) =   1
     Q(r) pseudized with 0 coefficients 


     atomic species   valence    mass     pseudopotential
        H              1.00     1.00794     H ( 1.00)
        N              5.00    14.00670     N ( 1.00)

     12 Sym. Ops. (no inversion) found ( 9 have fractional translation)


                                    s                        frac. trans.

      isym =  1     identity                                     

 cryst.   s( 1) = (     1          0          0      )
                  (     0          1          0      )
                  (     0          0          1      )

 cart.    s( 1) = (  1.0000000  0.0000000  0.0000000 )
                  (  0.0000000  1.0000000  0.0000000 )
                  (  0.0000000  0.0000000  1.0000000 )


      isym =  2     180 deg rotation - cart. axis [0,0,1]        

 cryst.   s( 2) = (    -1          0          0      )    f =(  0.5000000 )
                  (     0         -1          0      )       ( -0.0000000 )
                  (     0          0          1      )       ( -0.5000000 )

 cart.    s( 2) = ( -1.0000000  0.0000000  0.0000000 )    f =(  0.5000000 )
                  (  0.0000000 -1.0000000  0.0000000 )       ( -0.0000000 )
                  (  0.0000000  0.0000000  1.0000000 )       ( -0.5000000 )


      isym =  3     180 deg rotation - cart. axis [0,1,0]        

 cryst.   s( 3) = (    -1          0          0      )    f =( -0.0000000 )
                  (     0          1          0      )       ( -0.5000000 )
                  (     0          0         -1      )       (  0.5000000 )

 cart.    s( 3) = ( -1.0000000  0.0000000  0.0000000 )    f =( -0.0000000 )
                  (  0.0000000  1.0000000  0.0000000 )       ( -0.5000000 )
                  (  0.0000000  0.0000000 -1.0000000 )       (  0.5000000 )


      isym =  4     180 deg rotation - cart. axis [1,0,0]        

 cryst.   s( 4) = (     1          0          0      )    f =( -0.5000000 )
                  (     0         -1          0      )       (  0.5000000 )
                  (     0          0         -1      )       ( -0.0000000 )

 cart.    s( 4) = (  1.0000000  0.0000000  0.0000000 )    f =( -0.5000000 )
                  (  0.0000000 -1.0000000  0.0000000 )       (  0.5000000 )
                  (  0.0000000  0.0000000 -1.0000000 )       ( -0.0000000 )


      isym =  5     120 deg rotation - cart. axis [-1,-1,-1]     

 cryst.   s( 5) = (     0          0          1      )
                  (     1          0          0      )
                  (     0          1          0      )

 cart.    s( 5) = (  0.0000000  1.0000000  0.0000000 )
                  (  0.0000000  0.0000000  1.0000000 )
                  (  1.0000000  0.0000000  0.0000000 )


      isym =  6     120 deg rotation - cart. axis [-1,1,1]       

 cryst.   s( 6) = (     0          0         -1      )    f =( -0.0000000 )
                  (    -1          0          0      )       ( -0.5000000 )
                  (     0          1          0      )       (  0.5000000 )

 cart.    s( 6) = (  0.0000000 -1.0000000  0.0000000 )    f =( -0.0000000 )
                  (  0.0000000  0.0000000  1.0000000 )       ( -0.5000000 )
                  ( -1.0000000  0.0000000  0.0000000 )       (  0.5000000 )


      isym =  7     120 deg rotation - cart. axis [1,1,-1]       

 cryst.   s( 7) = (     0          0         -1      )    f =( -0.5000000 )
                  (     1          0          0      )       (  0.5000000 )
                  (     0         -1          0      )       ( -0.0000000 )

 cart.    s( 7) = (  0.0000000  1.0000000  0.0000000 )    f =( -0.5000000 )
                  (  0.0000000  0.0000000 -1.0000000 )       (  0.5000000 )
                  ( -1.0000000  0.0000000  0.0000000 )       ( -0.0000000 )


      isym =  8     120 deg rotation - cart. axis [1,-1,1]       

 cryst.   s( 8) = (     0          0          1      )    f =(  0.5000000 )
                  (    -1          0          0      )       ( -0.0000000 )
                  (     0         -1          0      )       ( -0.5000000 )

 cart.    s( 8) = (  0.0000000 -1.0000000  0.0000000 )    f =(  0.5000000 )
                  (  0.0000000  0.0000000 -1.0000000 )       ( -0.0000000 )
                  (  1.0000000  0.0000000  0.0000000 )       ( -0.5000000 )


      isym =  9     120 deg rotation - cart. axis [1,1,1]        

 cryst.   s( 9) = (     0          1          0      )
                  (     0          0          1      )
                  (     1          0          0      )

 cart.    s( 9) = (  0.0000000  0.0000000  1.0000000 )
                  (  1.0000000  0.0000000  0.0000000 )
                  (  0.0000000  1.0000000  0.0000000 )


      isym = 10     120 deg rotation - cart. axis [-1,1,-1]      

 cryst.   s(10) = (     0         -1          0      )    f =( -0.5000000 )
                  (     0          0         -1      )       (  0.5000000 )
                  (     1          0          0      )       ( -0.0000000 )

 cart.    s(10) = (  0.0000000  0.0000000  1.0000000 )    f =( -0.5000000 )
                  ( -1.0000000  0.0000000  0.0000000 )       (  0.5000000 )
                  (  0.0000000 -1.0000000  0.0000000 )       ( -0.0000000 )


      isym = 11     120 deg rotation - cart. axis [1,-1,-1]      

 cryst.   s(11) = (     0         -1          0      )    f =(  0.5000000 )
                  (     0          0          1      )       ( -0.0000000 )
                  (    -1          0          0      )       ( -0.5000000 )

 cart.    s(11) = (  0.0000000  0.0000000 -1.0000000 )    f =(  0.5000000 )
                  ( -1.0000000  0.0000000  0.0000000 )       ( -0.0000000 )
                  (  0.0000000  1.0000000  0.0000000 )       ( -0.5000000 )


      isym = 12     120 deg rotation - cart. axis [-1,-1,1]      

 cryst.   s(12) = (     0          1          0      )    f =( -0.0000000 )
                  (     0          0         -1      )       ( -0.5000000 )
                  (    -1          0          0      )       (  0.5000000 )

 cart.    s(12) = (  0.0000000  0.0000000 -1.0000000 )    f =( -0.0000000 )
                  (  1.0000000  0.0000000  0.0000000 )       ( -0.5000000 )
                  (  0.0000000 -1.0000000  0.0000000 )       (  0.5000000 )


   Cartesian axes

     site n.     atom                  positions (alat units)
         1           N   tau(   1) = (   0.2110000   0.2110000   0.2110000  )
         2           N   tau(   2) = (   0.2890000   0.7890000   0.7110000  )
         3           N   tau(   3) = (   0.7890000   0.7110000   0.2890000  )
         4           N   tau(   4) = (   0.7110000   0.2890000   0.7890000  )
         5           H   tau(   5) = (   0.3900000   0.2430000   0.1240000  )
         6           H   tau(   6) = (   0.1100000   0.7570000   0.6240000  )
         7           H   tau(   7) = (   0.6100000   0.7430000   0.3760000  )
         8           H   tau(   8) = (   0.8900000   0.2570000   0.8760000  )
         9           H   tau(   9) = (   0.1240000   0.3900000   0.2430000  )
        10           H   tau(  10) = (   0.6240000   0.1100000   0.7570000  )
        11           H   tau(  11) = (   0.3760000   0.6100000   0.7430000  )
        12           H   tau(  12) = (   0.8760000   0.8900000   0.2570000  )
        13           H   tau(  13) = (   0.2430000   0.1240000   0.3900000  )
        14           H   tau(  14) = (   0.7570000   0.6240000   0.1100000  )
        15           H   tau(  15) = (   0.7430000   0.3760000   0.6100000  )
        16           H   tau(  16) = (   0.2570000   0.8760000   0.8900000  )

   Crystallographic axes

     site n.     atom                  positions (cryst. coord.)
         1           N   tau(   1) = (  0.2110000  0.2110000  0.2110000  )
         2           N   tau(   2) = (  0.2890000  0.7890000  0.7110000  )
         3           N   tau(   3) = (  0.7890000  0.7110000  0.2890000  )
         4           N   tau(   4) = (  0.7110000  0.2890000  0.7890000  )
         5           H   tau(   5) = (  0.3900000  0.2430000  0.1240000  )
         6           H   tau(   6) = (  0.1100000  0.7570000  0.6240000  )
         7           H   tau(   7) = (  0.6100000  0.7430000  0.3760000  )
         8           H   tau(   8) = (  0.8900000  0.2570000  0.8760000  )
         9           H   tau(   9) = (  0.1240000  0.3900000  0.2430000  )
        10           H   tau(  10) = (  0.6240000  0.1100000  0.7570000  )
        11           H   tau(  11) = (  0.3760000  0.6100000  0.7430000  )
        12           H   tau(  12) = (  0.8760000  0.8900000  0.2570000  )
        13           H   tau(  13) = (  0.2430000  0.1240000  0.3900000  )
        14           H   tau(  14) = (  0.7570000  0.6240000  0.1100000  )
        15           H   tau(  15) = (  0.7430000  0.3760000  0.6100000  )
        16           H   tau(  16) = (  0.2570000  0.8760000  0.8900000  )

     number of k points=    91  Marzari-Vanderbilt smearing, width (Ry)=  0.0147
                       cart. coord. in units 2pi/alat
        k(    1) = (   0.0000000   0.5000000   0.0000000), wk =   0.0219780
        k(    2) = (   0.0000000   0.4750000   0.0000000), wk =   0.0219780
        k(    3) = (   0.0000000   0.4500000   0.0000000), wk =   0.0219780
        k(    4) = (   0.0000000   0.4250000   0.0000000), wk =   0.0219780
        k(    5) = (   0.0000000   0.4000000   0.0000000), wk =   0.0219780
        k(    6) = (   0.0000000   0.3750000   0.0000000), wk =   0.0219780
        k(    7) = (   0.0000000   0.3500000   0.0000000), wk =   0.0219780
        k(    8) = (   0.0000000   0.3250000   0.0000000), wk =   0.0219780
        k(    9) = (   0.0000000   0.3000000   0.0000000), wk =   0.0219780
        k(   10) = (   0.0000000   0.2750000   0.0000000), wk =   0.0219780
        k(   11) = (   0.0000000   0.2500000   0.0000000), wk =   0.0219780
        k(   12) = (   0.0000000   0.2250000   0.0000000), wk =   0.0219780
        k(   13) = (   0.0000000   0.2000000   0.0000000), wk =   0.0219780
        k(   14) = (   0.0000000   0.1750000   0.0000000), wk =   0.0219780
        k(   15) = (   0.0000000   0.1500000   0.0000000), wk =   0.0219780
        k(   16) = (   0.0000000   0.1250000   0.0000000), wk =   0.0219780
        k(   17) = (   0.0000000   0.1000000   0.0000000), wk =   0.0219780
        k(   18) = (   0.0000000   0.0750000   0.0000000), wk =   0.0219780
        k(   19) = (   0.0000000   0.0500000   0.0000000), wk =   0.0219780
        k(   20) = (   0.0000000   0.0250000   0.0000000), wk =   0.0219780
        k(   21) = (   0.0000000   0.0000000   0.0000000), wk =   0.0219780
        k(   22) = (  -0.0166667   0.0000000  -0.0166667), wk =   0.0219780
        k(   23) = (  -0.0333333   0.0000000  -0.0333333), wk =   0.0219780
        k(   24) = (  -0.0500000   0.0000000  -0.0500000), wk =   0.0219780
        k(   25) = (  -0.0666667   0.0000000  -0.0666667), wk =   0.0219780
        k(   26) = (  -0.0833333   0.0000000  -0.0833333), wk =   0.0219780
        k(   27) = (  -0.1000000   0.0000000  -0.1000000), wk =   0.0219780
        k(   28) = (  -0.1166667   0.0000000  -0.1166667), wk =   0.0219780
        k(   29) = (  -0.1333333   0.0000000  -0.1333333), wk =   0.0219780
        k(   30) = (  -0.1500000   0.0000000  -0.1500000), wk =   0.0219780
        k(   31) = (  -0.1666667   0.0000000  -0.1666667), wk =   0.0219780
        k(   32) = (  -0.1833333   0.0000000  -0.1833333), wk =   0.0219780
        k(   33) = (  -0.2000000   0.0000000  -0.2000000), wk =   0.0219780
        k(   34) = (  -0.2166667   0.0000000  -0.2166667), wk =   0.0219780
        k(   35) = (  -0.2333333   0.0000000  -0.2333333), wk =   0.0219780
        k(   36) = (  -0.2500000   0.0000000  -0.2500000), wk =   0.0219780
        k(   37) = (  -0.2666667   0.0000000  -0.2666667), wk =   0.0219780
        k(   38) = (  -0.2833333   0.0000000  -0.2833333), wk =   0.0219780
        k(   39) = (  -0.3000000   0.0000000  -0.3000000), wk =   0.0219780
        k(   40) = (  -0.3166667   0.0000000  -0.3166667), wk =   0.0219780
        k(   41) = (  -0.3333333   0.0000000  -0.3333333), wk =   0.0219780
        k(   42) = (  -0.3500000   0.0000000  -0.3500000), wk =   0.0219780
        k(   43) = (  -0.3666667   0.0000000  -0.3666667), wk =   0.0219780
        k(   44) = (  -0.3833333   0.0000000  -0.3833333), wk =   0.0219780
        k(   45) = (  -0.4000000   0.0000000  -0.4000000), wk =   0.0219780
        k(   46) = (  -0.4166667   0.0000000  -0.4166667), wk =   0.0219780
        k(   47) = (  -0.4333333   0.0000000  -0.4333333), wk =   0.0219780
        k(   48) = (  -0.4500000   0.0000000  -0.4500000), wk =   0.0219780
        k(   49) = (  -0.4666667   0.0000000  -0.4666667), wk =   0.0219780
        k(   50) = (  -0.4833333   0.0000000  -0.4833333), wk =   0.0219780
        k(   51) = (  -0.5000000   0.0000000  -0.5000000), wk =   0.0219780
        k(   52) = (  -0.4875000   0.0250000  -0.4875000), wk =   0.0219780
        k(   53) = (  -0.4750000   0.0500000  -0.4750000), wk =   0.0219780
        k(   54) = (  -0.4625000   0.0750000  -0.4625000), wk =   0.0219780
        k(   55) = (  -0.4500000   0.1000000  -0.4500000), wk =   0.0219780
        k(   56) = (  -0.4375000   0.1250000  -0.4375000), wk =   0.0219780
        k(   57) = (  -0.4250000   0.1500000  -0.4250000), wk =   0.0219780
        k(   58) = (  -0.4125000   0.1750000  -0.4125000), wk =   0.0219780
        k(   59) = (  -0.4000000   0.2000000  -0.4000000), wk =   0.0219780
        k(   60) = (  -0.3875000   0.2250000  -0.3875000), wk =   0.0219780
        k(   61) = (  -0.3750000   0.2500000  -0.3750000), wk =   0.0219780
        k(   62) = (  -0.3625000   0.2416667  -0.3625000), wk =   0.0219780
        k(   63) = (  -0.3500000   0.2333333  -0.3500000), wk =   0.0219780
        k(   64) = (  -0.3375000   0.2250000  -0.3375000), wk =   0.0219780
        k(   65) = (  -0.3250000   0.2166667  -0.3250000), wk =   0.0219780
        k(   66) = (  -0.3125000   0.2083333  -0.3125000), wk =   0.0219780
        k(   67) = (  -0.3000000   0.2000000  -0.3000000), wk =   0.0219780
        k(   68) = (  -0.2875000   0.1916667  -0.2875000), wk =   0.0219780
        k(   69) = (  -0.2750000   0.1833333  -0.2750000), wk =   0.0219780
        k(   70) = (  -0.2625000   0.1750000  -0.2625000), wk =   0.0219780
        k(   71) = (  -0.2500000   0.1666667  -0.2500000), wk =   0.0219780
        k(   72) = (  -0.2375000   0.1583333  -0.2375000), wk =   0.0219780
        k(   73) = (  -0.2250000   0.1500000  -0.2250000), wk =   0.0219780
        k(   74) = (  -0.2125000   0.1416667  -0.2125000), wk =   0.0219780
        k(   75) = (  -0.2000000   0.1333333  -0.2000000), wk =   0.0219780
        k(   76) = (  -0.1875000   0.1250000  -0.1875000), wk =   0.0219780
        k(   77) = (  -0.1750000   0.1166667  -0.1750000), wk =   0.0219780
        k(   78) = (  -0.1625000   0.1083333  -0.1625000), wk =   0.0219780
        k(   79) = (  -0.1500000   0.1000000  -0.1500000), wk =   0.0219780
        k(   80) = (  -0.1375000   0.0916667  -0.1375000), wk =   0.0219780
        k(   81) = (  -0.1250000   0.0833333  -0.1250000), wk =   0.0219780
        k(   82) = (  -0.1125000   0.0750000  -0.1125000), wk =   0.0219780
        k(   83) = (  -0.1000000   0.0666667  -0.1000000), wk =   0.0219780
        k(   84) = (  -0.0875000   0.0583333  -0.0875000), wk =   0.0219780
        k(   85) = (  -0.0750000   0.0500000  -0.0750000), wk =   0.0219780
        k(   86) = (  -0.0625000   0.0416667  -0.0625000), wk =   0.0219780
        k(   87) = (  -0.0500000   0.0333333  -0.0500000), wk =   0.0219780
        k(   88) = (  -0.0375000   0.0250000  -0.0375000), wk =   0.0219780
        k(   89) = (  -0.0250000   0.0166667  -0.0250000), wk =   0.0219780
        k(   90) = (  -0.0125000   0.0083333  -0.0125000), wk =   0.0219780
        k(   91) = (   0.0000000   0.0000000   0.0000000), wk =   0.0219780

                       cryst. coord.
        k(    1) = (   0.0000000   0.5000000   0.0000000), wk =   0.0219780
        k(    2) = (   0.0000000   0.4750000   0.0000000), wk =   0.0219780
        k(    3) = (   0.0000000   0.4500000   0.0000000), wk =   0.0219780
        k(    4) = (   0.0000000   0.4250000   0.0000000), wk =   0.0219780
        k(    5) = (   0.0000000   0.4000000   0.0000000), wk =   0.0219780
        k(    6) = (   0.0000000   0.3750000   0.0000000), wk =   0.0219780
        k(    7) = (   0.0000000   0.3500000   0.0000000), wk =   0.0219780
        k(    8) = (   0.0000000   0.3250000   0.0000000), wk =   0.0219780
        k(    9) = (   0.0000000   0.3000000   0.0000000), wk =   0.0219780
        k(   10) = (   0.0000000   0.2750000   0.0000000), wk =   0.0219780
        k(   11) = (   0.0000000   0.2500000   0.0000000), wk =   0.0219780
        k(   12) = (   0.0000000   0.2250000   0.0000000), wk =   0.0219780
        k(   13) = (   0.0000000   0.2000000   0.0000000), wk =   0.0219780
        k(   14) = (   0.0000000   0.1750000   0.0000000), wk =   0.0219780
        k(   15) = (   0.0000000   0.1500000   0.0000000), wk =   0.0219780
        k(   16) = (   0.0000000   0.1250000   0.0000000), wk =   0.0219780
        k(   17) = (   0.0000000   0.1000000   0.0000000), wk =   0.0219780
        k(   18) = (   0.0000000   0.0750000   0.0000000), wk =   0.0219780
        k(   19) = (   0.0000000   0.0500000   0.0000000), wk =   0.0219780
        k(   20) = (   0.0000000   0.0250000   0.0000000), wk =   0.0219780
        k(   21) = (   0.0000000   0.0000000   0.0000000), wk =   0.0219780
        k(   22) = (  -0.0166667   0.0000000  -0.0166667), wk =   0.0219780
        k(   23) = (  -0.0333333   0.0000000  -0.0333333), wk =   0.0219780
        k(   24) = (  -0.0500000   0.0000000  -0.0500000), wk =   0.0219780
        k(   25) = (  -0.0666667   0.0000000  -0.0666667), wk =   0.0219780
        k(   26) = (  -0.0833333   0.0000000  -0.0833333), wk =   0.0219780
        k(   27) = (  -0.1000000   0.0000000  -0.1000000), wk =   0.0219780
        k(   28) = (  -0.1166667   0.0000000  -0.1166667), wk =   0.0219780
        k(   29) = (  -0.1333333   0.0000000  -0.1333333), wk =   0.0219780
        k(   30) = (  -0.1500000   0.0000000  -0.1500000), wk =   0.0219780
        k(   31) = (  -0.1666667   0.0000000  -0.1666667), wk =   0.0219780
        k(   32) = (  -0.1833333   0.0000000  -0.1833333), wk =   0.0219780
        k(   33) = (  -0.2000000   0.0000000  -0.2000000), wk =   0.0219780
        k(   34) = (  -0.2166667   0.0000000  -0.2166667), wk =   0.0219780
        k(   35) = (  -0.2333333   0.0000000  -0.2333333), wk =   0.0219780
        k(   36) = (  -0.2500000   0.0000000  -0.2500000), wk =   0.0219780
        k(   37) = (  -0.2666667   0.0000000  -0.2666667), wk =   0.0219780
        k(   38) = (  -0.2833333   0.0000000  -0.2833333), wk =   0.0219780
        k(   39) = (  -0.3000000   0.0000000  -0.3000000), wk =   0.0219780
        k(   40) = (  -0.3166667   0.0000000  -0.3166667), wk =   0.0219780
        k(   41) = (  -0.3333333   0.0000000  -0.3333333), wk =   0.0219780
        k(   42) = (  -0.3500000   0.0000000  -0.3500000), wk =   0.0219780
        k(   43) = (  -0.3666667   0.0000000  -0.3666667), wk =   0.0219780
        k(   44) = (  -0.3833333   0.0000000  -0.3833333), wk =   0.0219780
        k(   45) = (  -0.4000000   0.0000000  -0.4000000), wk =   0.0219780
        k(   46) = (  -0.4166667   0.0000000  -0.4166667), wk =   0.0219780
        k(   47) = (  -0.4333333   0.0000000  -0.4333333), wk =   0.0219780
        k(   48) = (  -0.4500000   0.0000000  -0.4500000), wk =   0.0219780
        k(   49) = (  -0.4666667   0.0000000  -0.4666667), wk =   0.0219780
        k(   50) = (  -0.4833333   0.0000000  -0.4833333), wk =   0.0219780
        k(   51) = (  -0.5000000   0.0000000  -0.5000000), wk =   0.0219780
        k(   52) = (  -0.4875000   0.0250000  -0.4875000), wk =   0.0219780
        k(   53) = (  -0.4750000   0.0500000  -0.4750000), wk =   0.0219780
        k(   54) = (  -0.4625000   0.0750000  -0.4625000), wk =   0.0219780
        k(   55) = (  -0.4500000   0.1000000  -0.4500000), wk =   0.0219780
        k(   56) = (  -0.4375000   0.1250000  -0.4375000), wk =   0.0219780
        k(   57) = (  -0.4250000   0.1500000  -0.4250000), wk =   0.0219780
        k(   58) = (  -0.4125000   0.1750000  -0.4125000), wk =   0.0219780
        k(   59) = (  -0.4000000   0.2000000  -0.4000000), wk =   0.0219780
        k(   60) = (  -0.3875000   0.2250000  -0.3875000), wk =   0.0219780
        k(   61) = (  -0.3750000   0.2500000  -0.3750000), wk =   0.0219780
        k(   62) = (  -0.3625000   0.2416667  -0.3625000), wk =   0.0219780
        k(   63) = (  -0.3500000   0.2333333  -0.3500000), wk =   0.0219780
        k(   64) = (  -0.3375000   0.2250000  -0.3375000), wk =   0.0219780
        k(   65) = (  -0.3250000   0.2166667  -0.3250000), wk =   0.0219780
        k(   66) = (  -0.3125000   0.2083333  -0.3125000), wk =   0.0219780
        k(   67) = (  -0.3000000   0.2000000  -0.3000000), wk =   0.0219780
        k(   68) = (  -0.2875000   0.1916667  -0.2875000), wk =   0.0219780
        k(   69) = (  -0.2750000   0.1833333  -0.2750000), wk =   0.0219780
        k(   70) = (  -0.2625000   0.1750000  -0.2625000), wk =   0.0219780
        k(   71) = (  -0.2500000   0.1666667  -0.2500000), wk =   0.0219780
        k(   72) = (  -0.2375000   0.1583333  -0.2375000), wk =   0.0219780
        k(   73) = (  -0.2250000   0.1500000  -0.2250000), wk =   0.0219780
        k(   74) = (  -0.2125000   0.1416667  -0.2125000), wk =   0.0219780
        k(   75) = (  -0.2000000   0.1333333  -0.2000000), wk =   0.0219780
        k(   76) = (  -0.1875000   0.1250000  -0.1875000), wk =   0.0219780
        k(   77) = (  -0.1750000   0.1166667  -0.1750000), wk =   0.0219780
        k(   78) = (  -0.1625000   0.1083333  -0.1625000), wk =   0.0219780
        k(   79) = (  -0.1500000   0.1000000  -0.1500000), wk =   0.0219780
        k(   80) = (  -0.1375000   0.0916667  -0.1375000), wk =   0.0219780
        k(   81) = (  -0.1250000   0.0833333  -0.1250000), wk =   0.0219780
        k(   82) = (  -0.1125000   0.0750000  -0.1125000), wk =   0.0219780
        k(   83) = (  -0.1000000   0.0666667  -0.1000000), wk =   0.0219780
        k(   84) = (  -0.0875000   0.0583333  -0.0875000), wk =   0.0219780
        k(   85) = (  -0.0750000   0.0500000  -0.0750000), wk =   0.0219780
        k(   86) = (  -0.0625000   0.0416667  -0.0625000), wk =   0.0219780
        k(   87) = (  -0.0500000   0.0333333  -0.0500000), wk =   0.0219780
        k(   88) = (  -0.0375000   0.0250000  -0.0375000), wk =   0.0219780
        k(   89) = (  -0.0250000   0.0166667  -0.0250000), wk =   0.0219780
        k(   90) = (  -0.0125000   0.0083333  -0.0125000), wk =   0.0219780
        k(   91) = (   0.0000000   0.0000000   0.0000000), wk =   0.0219780

     Dense  grid:   167037 G-vectors     FFT dimensions: (  72,  72,  72)

     Smooth grid:    58893 G-vectors     FFT dimensions: (  50,  50,  50)

     Dynamical RAM for                 wfc:       0.16 MB

     Dynamical RAM for     wfc (w. buffer):       0.16 MB

     Dynamical RAM for           str. fact:       0.36 MB

     Dynamical RAM for           local pot:       0.00 MB

     Dynamical RAM for          nlocal pot:       0.45 MB

     Dynamical RAM for                qrad:       1.00 MB

     Dynamical RAM for          rho,v,vnew:       1.26 MB

     Dynamical RAM for           G-vectors:       0.71 MB

     Dynamical RAM for          h,s,v(r/c):       0.07 MB

     Dynamical RAM for          <psi|beta>:       0.02 MB

     Dynamical RAM for                 psi:       0.32 MB

     Dynamical RAM for                hpsi:       0.32 MB

     Dynamical RAM for                spsi:       0.32 MB

     Dynamical RAM for      wfcinit/wfcrot:       0.47 MB

     Dynamical RAM for           addusdens:      10.01 MB

     Estimated static dynamical RAM per process >       5.69 MB

     Estimated max dynamical RAM per process >      15.70 MB

     Estimated total dynamical RAM >     219.79 MB

     Check: negative core charge=   -0.000001

     The potential is recalculated from file :
     ./out/AC_Ph_1.save/charge-density

     Starting wfcs are   28 randomized atomic wfcs

     Band Structure Calculation
     Davidson diagonalization with overlap

     Computing kpt #:     1  of    91
     total cpu time spent up to now is        2.5 secs

     Computing kpt #:     2  of    91
     total cpu time spent up to now is        3.5 secs

     Computing kpt #:     3  of    91
     total cpu time spent up to now is        4.5 secs

     Computing kpt #:     4  of    91
     total cpu time spent up to now is        5.4 secs

     Computing kpt #:     5  of    91
     total cpu time spent up to now is        6.3 secs

     Computing kpt #:     6  of    91
     total cpu time spent up to now is        7.2 secs

     Computing kpt #:     7  of    91
     total cpu time spent up to now is        8.1 secs

     Computing kpt #:     8  of    91
     total cpu time spent up to now is        9.0 secs

     Computing kpt #:     9  of    91
     total cpu time spent up to now is        9.9 secs

     Computing kpt #:    10  of    91
     total cpu time spent up to now is       10.8 secs

     Computing kpt #:    11  of    91
     total cpu time spent up to now is       11.7 secs

     Computing kpt #:    12  of    91
     total cpu time spent up to now is       12.6 secs

     Computing kpt #:    13  of    91
     total cpu time spent up to now is       13.4 secs

     Computing kpt #:    14  of    91
     total cpu time spent up to now is       14.3 secs

     Computing kpt #:    15  of    91
     total cpu time spent up to now is       15.2 secs

     Computing kpt #:    16  of    91
     total cpu time spent up to now is       16.0 secs

     Computing kpt #:    17  of    91
     total cpu time spent up to now is       16.9 secs

     Computing kpt #:    18  of    91
     total cpu time spent up to now is       17.7 secs

     Computing kpt #:    19  of    91
     total cpu time spent up to now is       18.6 secs

     Computing kpt #:    20  of    91
     total cpu time spent up to now is       19.4 secs

     Computing kpt #:    21  of    91
     total cpu time spent up to now is       20.2 secs

     Computing kpt #:    22  of    91
     total cpu time spent up to now is       21.1 secs

     Computing kpt #:    23  of    91
     total cpu time spent up to now is       21.9 secs

     Computing kpt #:    24  of    91
     total cpu time spent up to now is       22.8 secs

     Computing kpt #:    25  of    91
     total cpu time spent up to now is       23.6 secs

     Computing kpt #:    26  of    91
     total cpu time spent up to now is       24.5 secs

     Computing kpt #:    27  of    91
     total cpu time spent up to now is       25.4 secs

     Computing kpt #:    28  of    91
     total cpu time spent up to now is       26.2 secs

     Computing kpt #:    29  of    91
     total cpu time spent up to now is       27.1 secs

     Computing kpt #:    30  of    91
     total cpu time spent up to now is       28.0 secs

     Computing kpt #:    31  of    91
     total cpu time spent up to now is       28.9 secs

     Computing kpt #:    32  of    91
     total cpu time spent up to now is       29.8 secs

     Computing kpt #:    33  of    91
     total cpu time spent up to now is       30.7 secs

     Computing kpt #:    34  of    91
     total cpu time spent up to now is       31.5 secs

     Computing kpt #:    35  of    91
     total cpu time spent up to now is       32.4 secs

     Computing kpt #:    36  of    91
     total cpu time spent up to now is       33.4 secs

     Computing kpt #:    37  of    91
     total cpu time spent up to now is       34.3 secs

     Computing kpt #:    38  of    91
     total cpu time spent up to now is       35.2 secs

     Computing kpt #:    39  of    91
     total cpu time spent up to now is       36.2 secs

     Computing kpt #:    40  of    91
     total cpu time spent up to now is       37.3 secs

     Computing kpt #:    41  of    91
     total cpu time spent up to now is       38.4 secs

     Computing kpt #:    42  of    91
     total cpu time spent up to now is       39.4 secs

     Computing kpt #:    43  of    91
     total cpu time spent up to now is       40.5 secs

     Computing kpt #:    44  of    91
     total cpu time spent up to now is       41.4 secs

     Computing kpt #:    45  of    91
     total cpu time spent up to now is       42.3 secs

     Computing kpt #:    46  of    91
     total cpu time spent up to now is       43.2 secs

     Computing kpt #:    47  of    91
     total cpu time spent up to now is       44.1 secs

     Computing kpt #:    48  of    91
     total cpu time spent up to now is       45.0 secs

     Computing kpt #:    49  of    91
     total cpu time spent up to now is       45.9 secs

     Computing kpt #:    50  of    91
     total cpu time spent up to now is       46.8 secs

     Computing kpt #:    51  of    91
     total cpu time spent up to now is       47.7 secs

     Computing kpt #:    52  of    91
     total cpu time spent up to now is       48.6 secs

     Computing kpt #:    53  of    91
     total cpu time spent up to now is       49.6 secs

     Computing kpt #:    54  of    91
     total cpu time spent up to now is       50.5 secs

     Computing kpt #:    55  of    91
     total cpu time spent up to now is       51.4 secs

     Computing kpt #:    56  of    91
     total cpu time spent up to now is       52.4 secs

     Computing kpt #:    57  of    91
     total cpu time spent up to now is       53.3 secs

     Computing kpt #:    58  of    91
     total cpu time spent up to now is       54.2 secs

     Computing kpt #:    59  of    91
     total cpu time spent up to now is       55.1 secs

     Computing kpt #:    60  of    91
     total cpu time spent up to now is       56.1 secs

     Computing kpt #:    61  of    91
     total cpu time spent up to now is       57.0 secs

     Computing kpt #:    62  of    91
     total cpu time spent up to now is       58.0 secs

     Computing kpt #:    63  of    91
     total cpu time spent up to now is       58.9 secs

     Computing kpt #:    64  of    91
     total cpu time spent up to now is       59.9 secs

     Computing kpt #:    65  of    91
     total cpu time spent up to now is       60.8 secs

     Computing kpt #:    66  of    91
     total cpu time spent up to now is       61.8 secs

     Computing kpt #:    67  of    91
     total cpu time spent up to now is       62.7 secs

     Computing kpt #:    68  of    91
     total cpu time spent up to now is       63.7 secs

     Computing kpt #:    69  of    91
     total cpu time spent up to now is       64.6 secs

     Computing kpt #:    70  of    91
     total cpu time spent up to now is       65.5 secs

     Computing kpt #:    71  of    91
     total cpu time spent up to now is       66.5 secs

     Computing kpt #:    72  of    91
     total cpu time spent up to now is       67.4 secs

     Computing kpt #:    73  of    91
     total cpu time spent up to now is       68.3 secs

     Computing kpt #:    74  of    91
     total cpu time spent up to now is       69.2 secs

     Computing kpt #:    75  of    91
     total cpu time spent up to now is       70.1 secs

     Computing kpt #:    76  of    91
     total cpu time spent up to now is       71.0 secs

     Computing kpt #:    77  of    91
     total cpu time spent up to now is       71.9 secs

     Computing kpt #:    78  of    91
     total cpu time spent up to now is       72.7 secs

     Computing kpt #:    79  of    91
     total cpu time spent up to now is       73.6 secs

     Computing kpt #:    80  of    91
     total cpu time spent up to now is       74.5 secs

     Computing kpt #:    81  of    91
     total cpu time spent up to now is       75.4 secs

     Computing kpt #:    82  of    91
     total cpu time spent up to now is       76.2 secs

     Computing kpt #:    83  of    91
     total cpu time spent up to now is       77.1 secs

     Computing kpt #:    84  of    91
     total cpu time spent up to now is       78.0 secs

     Computing kpt #:    85  of    91
     total cpu time spent up to now is       78.8 secs

     Computing kpt #:    86  of    91
     total cpu time spent up to now is       79.7 secs

     Computing kpt #:    87  of    91
     total cpu time spent up to now is       80.5 secs

     Computing kpt #:    88  of    91
     total cpu time spent up to now is       81.4 secs

     Computing kpt #:    89  of    91
     total cpu time spent up to now is       82.2 secs

     Computing kpt #:    90  of    91
     total cpu time spent up to now is       83.1 secs

     Computing kpt #:    91  of    91
     total cpu time spent up to now is       83.9 secs

     ethr =  1.00E-11,  avg # of iterations = 30.8

     total cpu time spent up to now is       83.9 secs

     End of band structure calculation

          k = 0.0000 0.5000 0.0000 (  7368 PWs)   bands (ev):

   -16.8408 -16.8408 -16.4944 -16.4944  -7.4800  -7.4800  -7.0530  -7.0530
    -6.7153  -6.7153  -6.5777  -6.5777  -2.4499  -2.4499  -2.0009  -2.0009
     4.1550   4.1550   6.2905   6.2905

          k = 0.0000 0.4750 0.0000 (  7388 PWs)   bands (ev):

   -16.8629 -16.8186 -16.4957 -16.4933  -7.4827  -7.4784  -7.0834  -7.0236
    -6.7171  -6.7111  -6.5906  -6.5648  -2.4492  -2.4485  -2.0114  -1.9899
     4.0268   4.2786   6.2766   6.2821

          k = 0.0000 0.4500 0.0000 (  7380 PWs)   bands (ev):

   -16.8847 -16.7964 -16.4970 -16.4922  -7.4865  -7.4778  -7.1145  -6.9953
    -6.7163  -6.7043  -6.6033  -6.5520  -2.4463  -2.4449  -2.0213  -1.9783
     3.8958   4.3963   6.2423   6.2515

          k = 0.0000 0.4250 0.0000 (  7372 PWs)   bands (ev):

   -16.9060 -16.7743 -16.4984 -16.4912  -7.4911  -7.4783  -7.1459  -6.9684
    -6.7130  -6.6953  -6.6156  -6.5395  -2.4414  -2.4389  -2.0308  -1.9662
     3.7631   4.5064   6.1910   6.2006

          k = 0.0000 0.4000 0.0000 (  7360 PWs)   bands (ev):

   -16.9268 -16.7523 -16.4998 -16.4904  -7.4965  -7.4798  -7.1775  -6.9430
    -6.7074  -6.6847  -6.6271  -6.5275  -2.4347  -2.4307  -2.0399  -1.9537
     3.6301   4.6073   6.1266   6.1331

          k = 0.0000 0.3750 0.0000 (  7384 PWs)   bands (ev):

   -16.9470 -16.7308 -16.5013 -16.4897  -7.5025  -7.4822  -7.2090  -6.9192
    -6.6997  -6.6737  -6.6367  -6.5161  -2.4262  -2.4203  -2.0487  -1.9408
     3.4981   4.6975   6.0529   6.0530

          k = 0.0000 0.3500 0.0000 (  7384 PWs)   bands (ev):

   -16.9664 -16.7097 -16.5027 -16.4891  -7.5089  -7.4853  -7.2400  -6.8969
    -6.6901  -6.6672  -6.6397  -6.5054  -2.4162  -2.4077  -2.0573  -1.9276
     3.3680   4.7758   5.9643   5.9732

          k = 0.0000 0.3250 0.0000 (  7372 PWs)   bands (ev):

   -16.9850 -16.6892 -16.5042 -16.4888  -7.5155  -7.4891  -7.2704  -6.8761
    -6.6789  -6.6709  -6.6311  -6.4957  -2.4048  -2.3933  -2.0657  -1.9143
     3.2411   4.8414   5.8707   5.8901

          k = 0.0000 0.3000 0.0000 (  7376 PWs)   bands (ev):

   -17.0026 -16.6695 -16.5056 -16.4886  -7.5221  -7.4933  -7.2999  -6.8568
    -6.6791  -6.6662  -6.6168  -6.4869  -2.3923  -2.3772  -2.0741  -1.9010
     3.1183   4.8942   5.7752   5.8059

          k = 0.0000 0.2750 0.0000 (  7372 PWs)   bands (ev):

   -17.0191 -16.6506 -16.5070 -16.4886  -7.5285  -7.4979  -7.3283  -6.8389
    -6.6879  -6.6524  -6.6010  -6.4794  -2.3786  -2.3597  -2.0827  -1.8879
     3.0007   4.9346   5.6803   5.7221

          k = 0.0000 0.2500 0.0000 (  7360 PWs)   bands (ev):

   -17.0345 -16.6326 -16.5083 -16.4889  -7.5344  -7.5026  -7.3555  -6.8225
    -6.6965  -6.6377  -6.5851  -6.4731  -2.3641  -2.3411  -2.0914  -1.8751
     2.8891   4.9640   5.5882   5.6403

          k = 0.0000 0.2250 0.0000 (  7372 PWs)   bands (ev):

   -17.0487 -16.6156 -16.5095 -16.4895  -7.5397  -7.5073  -7.3813  -6.8074
    -6.7044  -6.6224  -6.5697  -6.4682  -2.3490  -2.3220  -2.1004  -1.8629
     2.7846   4.9841   5.5006   5.5614

          k = 0.0000 0.2000 0.0000 (  7364 PWs)   bands (ev):

   -17.0616 -16.5997 -16.5107 -16.4904  -7.5442  -7.5120  -7.4054  -6.7937
    -6.7117  -6.6067  -6.5552  -6.4648  -2.3333  -2.3026  -2.1099  -1.8515
     2.6880   4.9972   5.4189   5.4864

          k = 0.0000 0.1750 0.0000 (  7340 PWs)   bands (ev):

   -17.0731 -16.5850 -16.5117 -16.4916  -7.5477  -7.5163  -7.4279  -6.7814
    -6.7181  -6.5909  -6.5419  -6.4629  -2.3172  -2.2837  -2.1198  -1.8410
     2.6003   5.0055   5.3443   5.4159

          k = 0.0000 0.1500 0.0000 (  7328 PWs)   bands (ev):

   -17.0832 -16.5715 -16.5127 -16.4932  -7.5501  -7.5203  -7.4486  -6.7706
    -6.7238  -6.5753  -6.5299  -6.4627  -2.3009  -2.2656  -2.1302  -1.8316
     2.5223   5.0112   5.2777   5.3506

          k = 0.0000 0.1250 0.0000 (  7328 PWs)   bands (ev):

   -17.0919 -16.5592 -16.5135 -16.4953  -7.5512  -7.5239  -7.4675  -6.7613
    -6.7286  -6.5599  -6.5196  -6.4641  -2.2846  -2.2490  -2.1413  -1.8235
     2.4548   5.0163   5.2201   5.2910

          k = 0.0000 0.1000 0.0000 (  7328 PWs)   bands (ev):

   -17.0990 -16.5481 -16.5141 -16.4979  -7.5508  -7.5270  -7.4844  -6.7536
    -6.7326  -6.5452  -6.5110  -6.4671  -2.2684  -2.2345  -2.1530  -1.8167
     2.3984   5.0226   5.1721   5.2372

          k = 0.0000 0.0750 0.0000 (  7329 PWs)   bands (ev):

   -17.1046 -16.5382 -16.5147 -16.5012  -7.5488  -7.5294  -7.4994  -6.7475
    -6.7357  -6.5311  -6.5042  -6.4718  -2.2523  -2.2226  -2.1654  -1.8114
     2.3539   5.0316   5.1342   5.1897

          k = 0.0000 0.0500 0.0000 (  7337 PWs)   bands (ev):

   -17.1086 -16.5295 -16.5151 -16.5051  -7.5452  -7.5312  -7.5124  -6.7432
    -6.7379  -6.5181  -6.4993  -6.4781  -2.2366  -2.2137  -2.1784  -1.8076
     2.3217   5.0444   5.1069   5.1485

          k = 0.0000 0.0250 0.0000 (  7325 PWs)   bands (ev):

   -17.1110 -16.5219 -16.5153 -16.5098  -7.5398  -7.5322  -7.5235  -6.7406
    -6.7392  -6.5061  -6.4964  -6.4860  -2.2212  -2.2082  -2.1921  -1.8053
     2.3023   5.0619   5.0903   5.1136

          k = 0.0000 0.0000 0.0000 (  7249 PWs)   bands (ev):

   -17.1118 -16.5154 -16.5154 -16.5154  -7.5326  -7.5326  -7.5326  -6.7396
    -6.7396  -6.4953  -6.4953  -6.4953  -2.2063  -2.2063  -2.2063  -1.8044
     2.2957   5.0848   5.0848   5.0848

          k =-0.0167 0.0000-0.0167 (  7329 PWs)   bands (ev):

   -17.1111 -16.5214 -16.5155 -16.5100  -7.5394  -7.5324  -7.5240  -6.7402
    -6.7396  -6.5051  -6.4969  -6.4862  -2.2203  -2.2083  -2.1928  -1.8052
     2.3015   5.0633   5.0893   5.1119

          k =-0.0333 0.0000-0.0333 (  7329 PWs)   bands (ev):

   -17.1089 -16.5280 -16.5160 -16.5052  -7.5443  -7.5320  -7.5135  -6.7416
    -6.7393  -6.5152  -6.5015  -6.4777  -2.2343  -2.2138  -2.1795  -1.8072
     2.3188   5.0474   5.1027   5.1448

          k =-0.0500 0.0000-0.0500 (  7335 PWs)   bands (ev):

   -17.1054 -16.5353 -16.5168 -16.5011  -7.5473  -7.5313  -7.5014  -6.7441
    -6.7388  -6.5256  -6.5092  -6.4699  -2.2484  -2.2228  -2.1667  -1.8106
     2.3474   5.0368   5.1246   5.1835

          k =-0.0667 0.0000-0.0667 (  7321 PWs)   bands (ev):

   -17.1004 -16.5431 -16.5179 -16.4976  -7.5486  -7.5303  -7.4876  -6.7476
    -6.7382  -6.5359  -6.5197  -6.4628  -2.2626  -2.2349  -2.1543  -1.8153
     2.3870   5.0314   5.1546   5.2281

          k =-0.0833 0.0000-0.0833 (  7317 PWs)   bands (ev):

   -17.0941 -16.5514 -16.5194 -16.4947  -7.5483  -7.5290  -7.4724  -6.7521
    -6.7375  -6.5461  -6.5330  -6.4566  -2.2766  -2.2495  -2.1424  -1.8213
     2.4370   5.0310   5.1918   5.2787

          k =-0.1000 0.0000-0.1000 (  7335 PWs)   bands (ev):

   -17.0864 -16.5602 -16.5212 -16.4925  -7.5465  -7.5275  -7.4560  -6.7577
    -6.7368  -6.5562  -6.5483  -6.4512  -2.2905  -2.2661  -2.1310  -1.8284
     2.4970   5.0353   5.2352   5.3354

          k =-0.1167 0.0000-0.1167 (  7345 PWs)   bands (ev):

   -17.0775 -16.5694 -16.5233 -16.4908  -7.5434  -7.5258  -7.4386  -6.7643
    -6.7362  -6.5698  -6.5615  -6.4467  -2.3042  -2.2841  -2.1202  -1.8366
     2.5664   5.0440   5.2837   5.3985

          k =-0.1333 0.0000-0.1333 (  7357 PWs)   bands (ev):

   -17.0673 -16.5790 -16.5257 -16.4897  -7.5392  -7.5239  -7.4203  -6.7718
    -6.7359  -6.5893  -6.5697  -6.4429  -2.3178  -2.3027  -2.1100  -1.8457
     2.6443   5.0567   5.3359   5.4678

          k =-0.1500 0.0000-0.1500 (  7365 PWs)   bands (ev):

   -17.0559 -16.5890 -16.5285 -16.4892  -7.5342  -7.5217  -7.4017  -6.7801
    -6.7363  -6.6108  -6.5758  -6.4398  -2.3316  -2.3208  -2.1003  -1.8556
     2.7303   5.0730   5.3903   5.5434

          k =-0.1667 0.0000-0.1667 (  7373 PWs)   bands (ev):

   -17.0434 -16.5991 -16.5316 -16.4893  -7.5289  -7.5192  -7.3828  -6.7892
    -6.7381  -6.6327  -6.5802  -6.4375  -2.3467  -2.3367  -2.0913  -1.8660
     2.8235   5.0924   5.4455   5.6249

          k =-0.1833 0.0000-0.1833 (  7361 PWs)   bands (ev):

   -17.0298 -16.6094 -16.5350 -16.4900  -7.5239  -7.5160  -7.3641  -6.7988
    -6.7424  -6.6534  -6.5830  -6.4360  -2.3634  -2.3497  -2.0827  -1.8768
     2.9234   5.1145   5.4999   5.7121

          k =-0.2000 0.0000-0.2000 (  7365 PWs)   bands (ev):

   -17.0152 -16.6198 -16.5387 -16.4912  -7.5198  -7.5117  -7.3459  -6.8094
    -6.7507  -6.6702  -6.5841  -6.4351  -2.3801  -2.3610  -2.0748  -1.8878
     3.0292   5.1385   5.5519   5.8042

          k =-0.2167 0.0000-0.2167 (  7367 PWs)   bands (ev):

   -16.9998 -16.6303 -16.5425 -16.4931  -7.5167  -7.5065  -7.3286  -6.8218
    -6.7632  -6.6813  -6.5836  -6.4350  -2.3956  -2.3711  -2.0673  -1.8988
     3.1404   5.1639   5.5998   5.9007

          k =-0.2333 0.0000-0.2333 (  7389 PWs)   bands (ev):

   -16.9835 -16.6406 -16.5466 -16.4956  -7.5142  -7.5012  -7.3123  -6.8382
    -6.7768  -6.6870  -6.5817  -6.4355  -2.4095  -2.3804  -2.0603  -1.9096
     3.2563   5.1899   5.6417   6.0008

          k =-0.2500 0.0000-0.2500 (  7395 PWs)   bands (ev):

   -16.9666 -16.6508 -16.5508 -16.4987  -7.5120  -7.4961  -7.2975  -6.8604
    -6.7870  -6.6891  -6.5785  -6.4368  -2.4215  -2.3888  -2.0538  -1.9201
     3.3764   5.2159   5.6761   6.1036

          k =-0.2667 0.0000-0.2667 (  7383 PWs)   bands (ev):

   -16.9490 -16.6608 -16.5551 -16.5025  -7.5099  -7.4917  -7.2842  -6.8881
    -6.7920  -6.6892  -6.5742  -6.4387  -2.4316  -2.3964  -2.0476  -1.9302
     3.5003   5.2412   5.7013   6.2084

          k =-0.2833 0.0000-0.2833 (  7385 PWs)   bands (ev):

   -16.9310 -16.6705 -16.5594 -16.5070  -7.5080  -7.4879  -7.2727  -6.9192
    -6.7925  -6.6882  -6.5690  -6.4413  -2.4397  -2.4033  -2.0418  -1.9397
     3.6274   5.2650   5.7165   6.3139

          k =-0.3000 0.0000-0.3000 (  7387 PWs)   bands (ev):

   -16.9126 -16.6797 -16.5637 -16.5122  -7.5060  -7.4848  -7.2629  -6.9522
    -6.7892  -6.6865  -6.5630  -6.4446  -2.4458  -2.4094  -2.0363  -1.9485
     3.7574   5.2867   5.7213   6.4182

          k =-0.3167 0.0000-0.3167 (  7407 PWs)   bands (ev):

   -16.8939 -16.6886 -16.5679 -16.5180  -7.5041  -7.4825  -7.2548  -6.9858
    -6.7829  -6.6844  -6.5566  -6.4485  -2.4500  -2.4149  -2.0311  -1.9567
     3.8898   5.3058   5.7162   6.5162

          k =-0.3333 0.0000-0.3333 (  7413 PWs)   bands (ev):

   -16.8752 -16.6969 -16.5720 -16.5246  -7.5021  -7.4808  -7.2483  -7.0194
    -6.7739  -6.6822  -6.5500  -6.4531  -2.4526  -2.4198  -2.0262  -1.9641
     4.0243   5.3220   5.7023   6.5858

          k =-0.3500 0.0000-0.3500 (  7399 PWs)   bands (ev):

   -16.8565 -16.7046 -16.5758 -16.5317  -7.4999  -7.4796  -7.2431  -7.0523
    -6.7628  -6.6799  -6.5432  -6.4584  -2.4537  -2.4241  -2.0215  -1.9707
     4.1606   5.3350   5.6814   6.5651

          k =-0.3667 0.0000-0.3667 (  7403 PWs)   bands (ev):

   -16.8381 -16.7117 -16.5794 -16.5395  -7.4976  -7.4788  -7.2391  -7.0839
    -6.7502  -6.6776  -6.5367  -6.4643  -2.4535  -2.4279  -2.0172  -1.9765
     4.2983   5.3448   5.6555   6.4727

          k =-0.3833 0.0000-0.3833 (  7411 PWs)   bands (ev):

   -16.8201 -16.7181 -16.5827 -16.5478  -7.4950  -7.4784  -7.2362  -7.1138
    -6.7366  -6.6754  -6.5305  -6.4706  -2.4525  -2.4311  -2.0131  -1.9817
     4.4372   5.3518   5.6268   6.3588

          k =-0.4000 0.0000-0.4000 (  7389 PWs)   bands (ev):

   -16.8028 -16.7238 -16.5857 -16.5565  -7.4922  -7.4782  -7.2340  -7.1414
    -6.7225  -6.6734  -6.5248  -6.4774  -2.4507  -2.4340  -2.0094  -1.9861
     4.5770   5.3563   5.5972   6.2363

          k =-0.4167 0.0000-0.4167 (  7389 PWs)   bands (ev):

   -16.7866 -16.7286 -16.5883 -16.5653  -7.4891  -7.4782  -7.2324  -7.1663
    -6.7086  -6.6716  -6.5197  -6.4844  -2.4487  -2.4363  -2.0061  -1.9897
     4.7173   5.3589   5.5687   6.1088

          k =-0.4333 0.0000-0.4333 (  7383 PWs)   bands (ev):

   -16.7718 -16.7326 -16.5904 -16.5738  -7.4860  -7.4782  -7.2313  -7.1879
    -6.6956  -6.6700  -6.5155  -6.4912  -2.4465  -2.4382  -2.0033  -1.9927
     4.8579   5.3603   5.5428   5.9780

          k =-0.4500 0.0000-0.4500 (  7371 PWs)   bands (ev):

   -16.7589 -16.7358 -16.5921 -16.5818  -7.4831  -7.4783  -7.2306  -7.2056
    -6.6842  -6.6688  -6.5120  -6.4976  -2.4446  -2.4397  -2.0010  -1.9950
     4.9981   5.3609   5.5209   5.8448

          k =-0.4667 0.0000-0.4667 (  7374 PWs)   bands (ev):

   -16.7488 -16.7380 -16.5934 -16.5884  -7.4806  -7.4783  -7.2301  -7.2188
    -6.6751  -6.6679  -6.5096  -6.5028  -2.4430  -2.4408  -1.9993  -1.9966
     5.1370   5.3611   5.5043   5.7108

          k =-0.4833 0.0000-0.4833 (  7370 PWs)   bands (ev):

   -16.7422 -16.7394 -16.5941 -16.5928  -7.4790  -7.4784  -7.2298  -7.2270
    -6.6692  -6.6673  -6.5081  -6.5063  -2.4420  -2.4414  -1.9983  -1.9976
     5.2712   5.3612   5.4939   5.5794

          k =-0.5000 0.0000-0.5000 (  7380 PWs)   bands (ev):

   -16.7399 -16.7399 -16.5944 -16.5944  -7.4784  -7.4784  -7.2297  -7.2297
    -6.6671  -6.6671  -6.5076  -6.5076  -2.4417  -2.4417  -1.9979  -1.9979
     5.3613   5.3613   5.4903   5.4903

          k =-0.4875 0.0250-0.4875 (  7374 PWs)   bands (ev):

   -16.7409 -16.7394 -16.5944 -16.5937  -7.4799  -7.4796  -7.2325  -7.2309
    -6.6659  -6.6648  -6.5066  -6.5056  -2.4407  -2.4404  -1.9982  -1.9978
     5.3014   5.3602   5.4906   5.5469

          k =-0.4750 0.0500-0.4750 (  7382 PWs)   bands (ev):

   -16.7439 -16.7378 -16.5946 -16.5917  -7.4844  -7.4830  -7.2406  -7.2342
    -6.6622  -6.6580  -6.5039  -6.5000  -2.4379  -2.4366  -1.9990  -1.9975
     5.2024   5.3573   5.4916   5.6361

          k =-0.4625 0.0750-0.4625 (  7372 PWs)   bands (ev):

   -16.7486 -16.7353 -16.5948 -16.5887  -7.4915  -7.4883  -7.2533  -7.2392
    -6.6566  -6.6476  -6.4996  -6.4908  -2.4335  -2.4305  -2.0003  -1.9971
     5.0986   5.3527   5.4937   5.7235

          k =-0.4500 0.1000-0.4500 (  7376 PWs)   bands (ev):

   -16.7544 -16.7318 -16.5952 -16.5852  -7.5009  -7.4953  -7.2696  -7.2452
    -6.6499  -6.6345  -6.4940  -6.4785  -2.4277  -2.4223  -2.0019  -1.9966
     4.9957   5.3473   5.4975   5.8035

          k =-0.4375 0.1250-0.4375 (  7392 PWs)   bands (ev):

   -16.7609 -16.7274 -16.5958 -16.5816  -7.5119  -7.5035  -7.2884  -7.2516
    -6.6427  -6.6198  -6.4876  -6.4640  -2.4210  -2.4122  -2.0038  -1.9961
     4.8966   5.3416   5.5039   5.8729

          k =-0.4250 0.1500-0.4250 (  7382 PWs)   bands (ev):

   -16.7677 -16.7223 -16.5965 -16.5782  -7.5237  -7.5123  -7.3086  -7.2579
    -6.6354  -6.6044  -6.4808  -6.4479  -2.4136  -2.4008  -2.0059  -1.9958
     4.8033   5.3367   5.5137   5.9288

          k =-0.4125 0.1750-0.4125 (  7377 PWs)   bands (ev):

   -16.7744 -16.7164 -16.5975 -16.5754  -7.5353  -7.5214  -7.3290  -7.2638
    -6.6286  -6.5890  -6.4743  -6.4313  -2.4062  -2.3885  -2.0079  -1.9957
     4.7178   5.3337   5.5278   5.9678

          k =-0.4000 0.2000-0.4000 (  7358 PWs)   bands (ev):

   -16.7807 -16.7099 -16.5989 -16.5732  -7.5461  -7.5303  -7.3489  -7.2690
    -6.6223  -6.5741  -6.4685  -6.4152  -2.3990  -2.3760  -2.0098  -1.9958
     4.6417   5.3336   5.5472   5.9868

          k =-0.3875 0.2250-0.3875 (  7383 PWs)   bands (ev):

   -16.7863 -16.7031 -16.6006 -16.5717  -7.5553  -7.5387  -7.3672  -7.2735
    -6.6170  -6.5603  -6.4640  -6.4005  -2.3926  -2.3640  -2.0115  -1.9962
     4.5764   5.3373   5.5726   5.9831

          k =-0.3750 0.2500-0.3750 (  7377 PWs)   bands (ev):

   -16.7910 -16.6963 -16.6027 -16.5709  -7.5623  -7.5460  -7.3833  -7.2771
    -6.6125  -6.5477  -6.4612  -6.3880  -2.3873  -2.3533  -2.0129  -1.9967
     4.5232   5.3455   5.6047   5.9562

          k =-0.3625 0.2417-0.3625 (  7373 PWs)   bands (ev):

   -16.8049 -16.6934 -16.5993 -16.5641  -7.5587  -7.5395  -7.3717  -7.2446
    -6.6335  -6.5632  -6.4699  -6.3888  -2.3986  -2.3597  -2.0131  -1.9919
     4.4316   5.3543   5.6565   6.0364

          k =-0.3500 0.2333-0.3500 (  7379 PWs)   bands (ev):

   -16.8193 -16.6901 -16.5959 -16.5574  -7.5551  -7.5330  -7.3607  -7.2110
    -6.6541  -6.5792  -6.4783  -6.3898  -2.4087  -2.3654  -2.0139  -1.9868
     4.3376   5.3598   5.7073   6.1148

          k =-0.3375 0.2250-0.3375 (  7377 PWs)   bands (ev):

   -16.8340 -16.6863 -16.5922 -16.5509  -7.5516  -7.5265  -7.3504  -7.1763
    -6.6741  -6.5955  -6.4865  -6.3912  -2.4177  -2.3703  -2.0154  -1.9815
     4.2418   5.3617   5.7554   6.1885

          k =-0.3250 0.2167-0.3250 (  7377 PWs)   bands (ev):

   -16.8489 -16.6821 -16.5885 -16.5446  -7.5482  -7.5203  -7.3411  -7.1408
    -6.6932  -6.6118  -6.4945  -6.3928  -2.4252  -2.3743  -2.0174  -1.9759
     4.1444   5.3599   5.7987   6.2524

          k =-0.3125 0.2083-0.3125 (  7376 PWs)   bands (ev):

   -16.8640 -16.6775 -16.5847 -16.5385  -7.5450  -7.5145  -7.3329  -7.1047
    -6.7111  -6.6278  -6.5023  -6.3946  -2.4311  -2.3775  -2.0199  -1.9700
     4.0457   5.3544   5.8352   6.2984

          k =-0.3000 0.2000-0.3000 (  7383 PWs)   bands (ev):

   -16.8793 -16.6726 -16.5808 -16.5326  -7.5420  -7.5093  -7.3260  -7.0682
    -6.7276  -6.6434  -6.5098  -6.3966  -2.4354  -2.3797  -2.0229  -1.9637
     3.9461   5.3453   5.8626   6.3164

          k =-0.2875 0.1917-0.2875 (  7378 PWs)   bands (ev):

   -16.8945 -16.6672 -16.5768 -16.5271  -7.5392  -7.5049  -7.3208  -7.0315
    -6.7424  -6.6581  -6.5171  -6.3988  -2.4378  -2.3809  -2.0264  -1.9571
     3.8460   5.3328   5.8792   6.3026

          k =-0.2750 0.1833-0.2750 (  7379 PWs)   bands (ev):

   -16.9097 -16.6615 -16.5728 -16.5218  -7.5367  -7.5015  -7.3174  -6.9948
    -6.7553  -6.6718  -6.5241  -6.4011  -2.4384  -2.3813  -2.0303  -1.9501
     3.7457   5.3173   5.8837   6.2634

          k =-0.2625 0.1750-0.2625 (  7387 PWs)   bands (ev):

   -16.9248 -16.6555 -16.5688 -16.5169  -7.5345  -7.4991  -7.3159  -6.9584
    -6.7661  -6.6843  -6.5307  -6.4035  -2.4370  -2.3806  -2.0346  -1.9427
     3.6456   5.2991   5.8758   6.2085

          k =-0.2500 0.1667-0.2500 (  7383 PWs)   bands (ev):

   -16.9397 -16.6492 -16.5648 -16.5124  -7.5326  -7.4980  -7.3164  -6.9224
    -6.7746  -6.6953  -6.5369  -6.4061  -2.4337  -2.3790  -2.0393  -1.9349
     3.5460   5.2789   5.8561   6.1447

          k =-0.2375 0.1583-0.2375 (  7378 PWs)   bands (ev):

   -16.9544 -16.6427 -16.5608 -16.5082  -7.5310  -7.4980  -7.3191  -6.8872
    -6.7807  -6.7048  -6.5426  -6.4087  -2.4284  -2.3765  -2.0444  -1.9268
     3.4473   5.2571   5.8261   6.0764

          k =-0.2250 0.1500-0.2250 (  7371 PWs)   bands (ev):

   -16.9687 -16.6359 -16.5569 -16.5044  -7.5298  -7.4992  -7.3238  -6.8532
    -6.7843  -6.7127  -6.5478  -6.4114  -2.4213  -2.3731  -2.0498  -1.9184
     3.3499   5.2341   5.7873   6.0059

          k =-0.2125 0.1417-0.2125 (  7377 PWs)   bands (ev):

   -16.9826 -16.6290 -16.5530 -16.5011  -7.5288  -7.5015  -7.3306  -6.8215
    -6.7848  -6.7187  -6.5524  -6.4142  -2.4124  -2.3687  -2.0555  -1.9098
     3.2542   5.2106   5.7418   5.9348

          k =-0.2000 0.1333-0.2000 (  7377 PWs)   bands (ev):

   -16.9960 -16.6219 -16.5492 -16.4981  -7.5282  -7.5048  -7.3392  -6.7979
    -6.7774  -6.7223  -6.5564  -6.4170  -2.4017  -2.3635  -2.0616  -1.9009
     3.1606   5.1870   5.6913   5.8640

          k =-0.1875 0.1250-0.1875 (  7380 PWs)   bands (ev):

   -17.0090 -16.6146 -16.5456 -16.4956  -7.5278  -7.5088  -7.3495  -6.7899
    -6.7576  -6.7210  -6.5595  -6.4200  -2.3896  -2.3575  -2.0680  -1.8920
     3.0696   5.1638   5.6375   5.7944

          k =-0.1750 0.1167-0.1750 (  7379 PWs)   bands (ev):

   -17.0213 -16.6073 -16.5421 -16.4936  -7.5278  -7.5134  -7.3612  -6.7856
    -6.7452  -6.7075  -6.5618  -6.4230  -2.3761  -2.3506  -2.0748  -1.8829
     2.9815   5.1413   5.5817   5.7264

          k =-0.1625 0.1083-0.1625 (  7367 PWs)   bands (ev):

   -17.0331 -16.6000 -16.5387 -16.4921  -7.5282  -7.5181  -7.3740  -6.7811
    -6.7425  -6.6841  -6.5631  -6.4262  -2.3615  -2.3430  -2.0820  -1.8740
     2.8968   5.1201   5.5253   5.6604

          k =-0.1500 0.1000-0.1500 (  7369 PWs)   bands (ev):

   -17.0442 -16.5926 -16.5355 -16.4910  -7.5293  -7.5224  -7.3877  -6.7761
    -6.7422  -6.6589  -6.5634  -6.4295  -2.3462  -2.3345  -2.0894  -1.8651
     2.8159   5.1005   5.4695   5.5968

          k =-0.1375 0.0917-0.1375 (  7367 PWs)   bands (ev):

   -17.0545 -16.5852 -16.5324 -16.4904  -7.5319  -7.5254  -7.4020  -6.7709
    -6.7423  -6.6344  -6.5625  -6.4330  -2.3309  -2.3247  -2.0973  -1.8566
     2.7392   5.0827   5.4151   5.5357

          k =-0.1250 0.0833-0.1250 (  7353 PWs)   bands (ev):

   -17.0641 -16.5779 -16.5296 -16.4903  -7.5357  -7.5270  -7.4165  -6.7657
    -6.7422  -6.6114  -6.5605  -6.4367  -2.3183  -2.3114  -2.1055  -1.8484
     2.6673   5.0673   5.3630   5.4775

          k =-0.1125 0.0750-0.1125 (  7349 PWs)   bands (ev):

   -17.0730 -16.5707 -16.5270 -16.4906  -7.5396  -7.5280  -7.4311  -6.7607
    -6.7421  -6.5902  -6.5572  -6.4408  -2.3077  -2.2957  -2.1141  -1.8406
     2.6006   5.0543   5.3139   5.4222

          k =-0.1000 0.0667-0.1000 (  7341 PWs)   bands (ev):

   -17.0809 -16.5636 -16.5246 -16.4915  -7.5430  -7.5288  -7.4455  -6.7561
    -6.7418  -6.5711  -6.5527  -6.4452  -2.2971  -2.2799  -2.1230  -1.8334
     2.5394   5.0441   5.2684   5.3701

          k =-0.0875 0.0583-0.0875 (  7331 PWs)   bands (ev):

   -17.0881 -16.5567 -16.5225 -16.4928  -7.5457  -7.5296  -7.4595  -6.7520
    -6.7414  -6.5546  -6.5466  -6.4499  -2.2863  -2.2647  -2.1324  -1.8269
     2.4843   5.0370   5.2272   5.3214

          k =-0.0750 0.0500-0.0750 (  7315 PWs)   bands (ev):

   -17.0943 -16.5499 -16.5207 -16.4947  -7.5474  -7.5303  -7.4728  -6.7485
    -6.7410  -6.5432  -6.5366  -6.4551  -2.2752  -2.2506  -2.1420  -1.8211
     2.4355   5.0330   5.1905   5.2763

          k =-0.0625 0.0417-0.0625 (  7318 PWs)   bands (ev):

   -17.0996 -16.5434 -16.5191 -16.4970  -7.5481  -7.5310  -7.4854  -6.7457
    -6.7406  -6.5354  -6.5246  -6.4607  -2.2639  -2.2379  -2.1521  -1.8161
     2.3936   5.0324   5.1589   5.2347

          k =-0.0500 0.0333-0.0500 (  7324 PWs)   bands (ev):

   -17.1040 -16.5372 -16.5178 -16.4998  -7.5476  -7.5315  -7.4971  -6.7434
    -6.7403  -6.5276  -6.5142  -6.4668  -2.2525  -2.2270  -2.1624  -1.8120
     2.3588   5.0354   5.1326   5.1970

          k =-0.0375 0.0250-0.0375 (  7324 PWs)   bands (ev):

   -17.1074 -16.5312 -16.5167 -16.5030  -7.5458  -7.5320  -7.5078  -6.7418
    -6.7400  -6.5196  -6.5060  -6.4733  -2.2409  -2.2182  -2.1730  -1.8087
     2.3314   5.0420   5.1118   5.1630

          k =-0.0250 0.0167-0.0250 (  7333 PWs)   bands (ev):

   -17.1098 -16.5256 -16.5160 -16.5067  -7.5427  -7.5323  -7.5173  -6.7406
    -6.7398  -6.5115  -6.5001  -6.4803  -2.2294  -2.2117  -2.1839  -1.8064
     2.3116   5.0524   5.0969   5.1330

          k =-0.0125 0.0083-0.0125 (  7325 PWs)   bands (ev):

   -17.1113 -16.5203 -16.5155 -16.5109  -7.5383  -7.5325  -7.5256  -6.7399
    -6.7397  -6.5033  -6.4966  -6.4876  -2.2178  -2.2077  -2.1951  -1.8049
     2.2997   5.0666   5.0878   5.1069

          k = 0.0000 0.0000 0.0000 (  7249 PWs)   bands (ev):

   -17.1118 -16.5154 -16.5154 -16.5154  -7.5326  -7.5326  -7.5326  -6.7396
    -6.7396  -6.4953  -6.4953  -6.4953  -2.2063  -2.2063  -2.2063  -1.8044
     2.2957   5.0848   5.0848   5.0848

     Writing all to output data dir ./out/AC_Ph_1.save/

     init_run     :      1.07s CPU      1.08s WALL (       1 calls)
     electrons    :     81.23s CPU     82.34s WALL (       1 calls)

     Called by init_run:
     wfcinit      :      0.00s CPU      0.00s WALL (       1 calls)
     wfcinit:atom :      0.06s CPU      0.07s WALL (      91 calls)
     wfcinit:wfcr :      4.57s CPU      4.63s WALL (      91 calls)
     potinit      :      0.17s CPU      0.17s WALL (       1 calls)
     hinit0       :      0.49s CPU      0.49s WALL (       1 calls)

     Called by electrons:
     c_bands      :     81.23s CPU     82.33s WALL (       1 calls)
     v_of_rho     :      0.06s CPU      0.06s WALL (       1 calls)
     v_h          :      0.00s CPU      0.00s WALL (       1 calls)
     v_xc         :      0.05s CPU      0.05s WALL (       1 calls)
     newd         :      0.05s CPU      0.05s WALL (       1 calls)

     Called by c_bands:
     init_us_2    :      0.05s CPU      0.05s WALL (      91 calls)
     init_us_2:cp :      0.04s CPU      0.05s WALL (      91 calls)
     cegterg      :     76.25s CPU     77.26s WALL (     187 calls)

     Called by sum_band:

     Called by *egterg:
     cdiaghg      :      4.04s CPU      4.07s WALL (    2892 calls)
     cegterg:over :     10.04s CPU     10.16s WALL (    2801 calls)
     cegterg:upda :      3.26s CPU      3.27s WALL (    2801 calls)
     cegterg:last :      8.91s CPU      8.93s WALL (    1604 calls)
     h_psi        :     46.49s CPU     47.35s WALL (    3079 calls)
     s_psi        :      5.05s CPU      5.06s WALL (    3079 calls)
     g_psi        :      0.40s CPU      0.40s WALL (    2801 calls)

     Called by h_psi:
     h_psi:calbec :      8.91s CPU      9.08s WALL (    3079 calls)
     vloc_psi     :     32.36s CPU     33.03s WALL (    3079 calls)
     add_vuspsi   :      5.02s CPU      5.04s WALL (    3079 calls)

     General routines
     calbec       :      8.90s CPU      9.07s WALL (    3079 calls)
     fft          :      0.35s CPU      0.35s WALL (      13 calls)
     ffts         :      0.11s CPU      0.11s WALL (       1 calls)
     fftw         :     29.08s CPU     29.59s WALL (   71062 calls)
     interpolate  :      0.11s CPU      0.11s WALL (       1 calls)
     davcio       :      0.05s CPU      0.05s WALL (     182 calls)

     Parallel routines

     PWSCF        :   1m23.37s CPU   1m25.03s WALL


   This run was terminated on:   4: 2: 5  14Dec2022            

=------------------------------------------------------------------------------=
   JOB DONE.
=------------------------------------------------------------------------------=
