
     Program BANDS v.7.1 starts on 14Dec2022 at  3:16:14 

     This program is part of the open-source Quantum ESPRESSO suite
     for quantum simulation of materials; please cite
         "P. Giannozzi et al., J. Phys.:Condens. Matter 21 395502 (2009);
         "P. Giannozzi et al., J. Phys.:Condens. Matter 29 465901 (2017);
         "P. Giannozzi et al., J. Chem. Phys. 152 154105 (2020);
          URL http://www.quantum-espresso.org", 
     in publications or presentations arising from this work. More details at
     http://www.quantum-espresso.org/quote

     Parallel version (MPI), running on    14 processors

     MPI processes distributed on     1 nodes
     R & G space division:  proc/nbgrp/npool/nimage =      14
     23912 MiB available memory on the printing compute node when the environment starts


     Reading xml data from directory:

     ./out/AC_Ph_1.save/

     IMPORTANT: XC functional enforced from input :
     Exchange-correlation= PBE
                           (   1   4   3   4   0   0   0)
     Any further DFT definition will be discarded
     Please, verify this is what you really want


     Parallelization info
     --------------------
     sticks:   dense  smooth     PW     G-vecs:    dense   smooth      PW
     Min         262     130     36                11930     4206     644
     Max         263     131     37                11933     4207     647
     Sum        3673    1829    517               167037    58893    9045

     Using Slab Decomposition


     Check: negative core charge=   -0.000001
     Reading collected, re-writing distributed wavefunctions
     high-symmetry point:  0.0000 0.0000 0.0000   x coordinate   0.0000
     high-symmetry point:  0.0000 0.0000 0.4500   x coordinate   0.4500
     high-symmetry point:  0.0000 0.0000-0.5000   x coordinate   0.4500
     high-symmetry point:  0.0000 0.0500 0.0500   x coordinate   0.4500
     high-symmetry point:  0.0000 0.0500 0.4500   x coordinate   0.8500
     high-symmetry point:  0.0000 0.0500-0.5000   x coordinate   0.8500
     high-symmetry point:  0.0000 0.1000 0.1000   x coordinate   0.8500
     high-symmetry point:  0.0000 0.1000 0.4500   x coordinate   1.2000
     high-symmetry point:  0.0000 0.1000-0.5000   x coordinate   1.2000
     high-symmetry point:  0.0000 0.1500 0.1500   x coordinate   1.2000
     high-symmetry point:  0.0000 0.1500 0.4500   x coordinate   1.5000
     high-symmetry point:  0.0000 0.1500-0.5000   x coordinate   1.5000
     high-symmetry point:  0.0000 0.2000 0.2000   x coordinate   1.5000
     high-symmetry point:  0.0000 0.2000 0.4500   x coordinate   1.7500
     high-symmetry point:  0.0000 0.2000-0.5000   x coordinate   1.7500
     high-symmetry point:  0.0000 0.2500 0.2500   x coordinate   1.7500
     high-symmetry point:  0.0000 0.2500 0.4500   x coordinate   1.9500
     high-symmetry point:  0.0000 0.2500-0.5000   x coordinate   1.9500
     high-symmetry point:  0.0000 0.3000 0.3000   x coordinate   1.9500
     high-symmetry point:  0.0000 0.3000 0.4500   x coordinate   2.1000
     high-symmetry point:  0.0000 0.3000-0.5000   x coordinate   2.1000
     high-symmetry point:  0.0000 0.3500 0.3500   x coordinate   2.1000
     high-symmetry point:  0.0000 0.3500 0.4500   x coordinate   2.2000
     high-symmetry point:  0.0000 0.3500-0.5000   x coordinate   2.2000
     high-symmetry point:  0.0000 0.4000 0.4000   x coordinate   2.2000
     high-symmetry point:  0.0000 0.4000 0.4500   x coordinate   2.2500
     high-symmetry point:  0.0000 0.4000-0.5000   x coordinate   2.2500
     high-symmetry point:  0.0000 0.4500 0.4500   x coordinate   2.2500
     high-symmetry point:  0.0000 0.4500-0.5000   x coordinate   2.2500
     high-symmetry point:  0.0000-0.5000-0.5000   x coordinate   2.2500
     high-symmetry point:  0.0500 0.0500 0.0500   x coordinate   2.2500
     high-symmetry point:  0.0500 0.0500 0.4500   x coordinate   2.6500
     high-symmetry point:  0.0500 0.0500-0.5000   x coordinate   2.6500
     high-symmetry point:  0.0500 0.1000 0.1000   x coordinate   2.6500
     high-symmetry point:  0.0500 0.1000 0.4500   x coordinate   3.0000
     high-symmetry point:  0.0500 0.1000-0.5000   x coordinate   3.0000
     high-symmetry point:  0.0500 0.1500 0.1500   x coordinate   3.0000
     high-symmetry point:  0.0500 0.1500 0.4500   x coordinate   3.3000
     high-symmetry point:  0.0500 0.1500-0.5000   x coordinate   3.3000
     high-symmetry point:  0.0500 0.2000 0.2000   x coordinate   3.3000
     high-symmetry point:  0.0500 0.2000 0.4500   x coordinate   3.5500
     high-symmetry point:  0.0500 0.2000-0.5000   x coordinate   3.5500
     high-symmetry point:  0.0500 0.2500 0.2500   x coordinate   3.5500
     high-symmetry point:  0.0500 0.2500 0.4500   x coordinate   3.7500
     high-symmetry point:  0.0500 0.2500-0.5000   x coordinate   3.7500
     high-symmetry point:  0.0500 0.3000 0.3000   x coordinate   3.7500
     high-symmetry point:  0.0500 0.3000 0.4500   x coordinate   3.9000
     high-symmetry point:  0.0500 0.3000-0.5000   x coordinate   3.9000
     high-symmetry point:  0.0500 0.3500 0.3500   x coordinate   3.9000
     high-symmetry point:  0.0500 0.3500 0.4500   x coordinate   4.0000
     high-symmetry point:  0.0500 0.3500-0.5000   x coordinate   4.0000
     high-symmetry point:  0.0500 0.4000 0.4000   x coordinate   4.0000
     high-symmetry point:  0.0500 0.4000 0.4500   x coordinate   4.0500
     high-symmetry point:  0.0500 0.4000-0.5000   x coordinate   4.0500
     high-symmetry point:  0.0500 0.4500 0.4500   x coordinate   4.0500
     high-symmetry point:  0.0500 0.4500-0.5000   x coordinate   4.0500
     high-symmetry point:  0.0500-0.5000-0.5000   x coordinate   4.0500
     high-symmetry point:  0.1000 0.1000 0.1000   x coordinate   4.0500
     high-symmetry point:  0.1000 0.1000 0.4500   x coordinate   4.4000
     high-symmetry point:  0.1000 0.1000-0.5000   x coordinate   4.4000
     high-symmetry point:  0.1000 0.1500 0.1500   x coordinate   4.4000
     high-symmetry point:  0.1000 0.1500 0.4500   x coordinate   4.7000
     high-symmetry point:  0.1000 0.1500-0.5000   x coordinate   4.7000
     high-symmetry point:  0.1000 0.2000 0.2000   x coordinate   4.7000
     high-symmetry point:  0.1000 0.2000 0.4500   x coordinate   4.9500
     high-symmetry point:  0.1000 0.2000-0.5000   x coordinate   4.9500
     high-symmetry point:  0.1000 0.2500 0.2500   x coordinate   4.9500
     high-symmetry point:  0.1000 0.2500 0.4500   x coordinate   5.1500
     high-symmetry point:  0.1000 0.2500-0.5000   x coordinate   5.1500
     high-symmetry point:  0.1000 0.3000 0.3000   x coordinate   5.1500
     high-symmetry point:  0.1000 0.3000 0.4500   x coordinate   5.3000
     high-symmetry point:  0.1000 0.3000-0.5000   x coordinate   5.3000
     high-symmetry point:  0.1000 0.3500 0.3500   x coordinate   5.3000
     high-symmetry point:  0.1000 0.3500 0.4500   x coordinate   5.4000
     high-symmetry point:  0.1000 0.3500-0.5000   x coordinate   5.4000
     high-symmetry point:  0.1000 0.4000 0.4000   x coordinate   5.4000
     high-symmetry point:  0.1000 0.4000 0.4500   x coordinate   5.4500
     high-symmetry point:  0.1000 0.4000-0.5000   x coordinate   5.4500
     high-symmetry point:  0.1000 0.4500 0.4500   x coordinate   5.4500
     high-symmetry point:  0.1000 0.4500-0.5000   x coordinate   5.4500
     high-symmetry point:  0.1000-0.5000-0.5000   x coordinate   5.4500
     high-symmetry point:  0.1500 0.1500 0.1500   x coordinate   5.4500
     high-symmetry point:  0.1500 0.1500 0.4500   x coordinate   5.7500
     high-symmetry point:  0.1500 0.1500-0.5000   x coordinate   5.7500
     high-symmetry point:  0.1500 0.2000 0.2000   x coordinate   5.7500
     high-symmetry point:  0.1500 0.2000 0.4500   x coordinate   6.0000
     high-symmetry point:  0.1500 0.2000-0.5000   x coordinate   6.0000
     high-symmetry point:  0.1500 0.2500 0.2500   x coordinate   6.0000
     high-symmetry point:  0.1500 0.2500 0.4500   x coordinate   6.2000
     high-symmetry point:  0.1500 0.2500-0.5000   x coordinate   6.2000
     high-symmetry point:  0.1500 0.3000 0.3000   x coordinate   6.2000
     high-symmetry point:  0.1500 0.3000 0.4500   x coordinate   6.3500
     high-symmetry point:  0.1500 0.3000-0.5000   x coordinate   6.3500
     high-symmetry point:  0.1500 0.3500 0.3500   x coordinate   6.3500
     high-symmetry point:  0.1500 0.3500 0.4500   x coordinate   6.4500
     high-symmetry point:  0.1500 0.3500-0.5000   x coordinate   6.4500
     high-symmetry point:  0.1500 0.4000 0.4000   x coordinate   6.4500
     high-symmetry point:  0.1500 0.4000 0.4500   x coordinate   6.5000
     high-symmetry point:  0.1500 0.4000-0.5000   x coordinate   6.5000
     high-symmetry point:  0.1500 0.4500 0.4500   x coordinate   6.5000
     Message from routine punch_plottable_bands:
     too many lines, exiting
     Bands written to file AC_bands.dat

 **************************************************************************

                    xk=(   0.00000,   0.00000,   0.00000  )

     point group T    (23)  
     there are  4 classes
     the character table:

       E     3C2   4C3   4C3' 
A      1.00  1.00  1.00  1.00
E      1.00  1.00 -0.50 -0.50
E*     1.00  1.00 -0.50 -0.50
T      3.00 -1.00  0.00  0.00
     imaginary part
A      0.00  0.00  0.00  0.00
E      0.00  0.00  0.87 -0.87
E*     0.00  0.00 -0.87  0.87
T      0.00  0.00  0.00  0.00

     the symmetry operations in each class and the name of the first element:

     E        1
                                                                 
     3C2      2    3    4
                                                                 
     4C3      9   12   10   11
                                                                 
     4C3'     5    7    8    6
                                                                 

     Band symmetry, T    (23)   point group:

     e(  1 -  1) =    -17.11181  eV     1   --> A              
     e(  2 -  4) =    -16.51540  eV     3   --> T              
     e(  5 -  7) =     -7.53258  eV     3   --> T              
     e(  8 -  9) =     -6.73966  eV     2   --> E              
     e(  8 -  9) =     -6.73966  eV     2   --> E*             
     e( 10 - 12) =     -6.49535  eV     3   --> T              
     e( 13 - 15) =     -2.20634  eV     3   --> T              
     e( 16 - 16) =     -1.80443  eV     1   --> A              
     e( 17 - 17) =      2.29573  eV     1   --> A              
     e( 18 - 20) =      5.08481  eV     3   --> T              

 **************************************************************************

 **************************************************************************

                    xk=(   0.00000,   0.00000,   0.05000  )

     point group C_2  (2)   
     there are  2 classes
     the character table:

       E     C2   
A      1.00  1.00
B      1.00 -1.00

     the symmetry operations in each class and the name of the first element:

     E        1
                                                                 
     C2       2
                                                                 

     Band symmetry, C_2  (2)    point group:

     e(  1 -  1) =    -17.10860  eV     1   --> A              
     e(  2 -  2) =    -16.52955  eV     1   --> B              
     e(  3 -  3) =    -16.51510  eV     1   --> A              
     e(  4 -  4) =    -16.50511  eV     1   --> B              
     e(  5 -  5) =     -7.54523  eV     1   --> B              
     e(  6 -  6) =     -7.53118  eV     1   --> A              
     e(  7 -  7) =     -7.51244  eV     1   --> B              
     e(  8 -  8) =     -6.74322  eV     1   --> A              
     e(  9 -  9) =     -6.73792  eV     1   --> A              
     e( 10 - 10) =     -6.51809  eV     1   --> B              
     e( 11 - 11) =     -6.49933  eV     1   --> A              
     e( 12 - 12) =     -6.47816  eV     1   --> B              
     e( 13 - 13) =     -2.23659  eV     1   --> B              
     e( 14 - 14) =     -2.21374  eV     1   --> A              
     e( 15 - 15) =     -2.17843  eV     1   --> B              
     e( 16 - 16) =     -1.80757  eV     1   --> A              
     e( 17 - 17) =      2.32172  eV     1   --> A              
     e( 18 - 18) =      5.04441  eV     1   --> B              
     e( 19 - 19) =      5.10687  eV     1   --> A              
     e( 20 - 20) =      5.14848  eV     1   --> B              

 **************************************************************************

 **************************************************************************

                    xk=(   0.00000,   0.00000,   0.10000  )

     Band symmetry, C_2  (2)    point group:

     e(  1 -  1) =    -17.09901  eV     1   --> A              
     e(  2 -  2) =    -16.54813  eV     1   --> B              
     e(  3 -  3) =    -16.51417  eV     1   --> A              
     e(  4 -  4) =    -16.49795  eV     1   --> B              
     e(  5 -  5) =     -7.55079  eV     1   --> B              
     e(  6 -  6) =     -7.52697  eV     1   --> A              
     e(  7 -  7) =     -7.48444  eV     1   --> B              
     e(  8 -  8) =     -6.75361  eV     1   --> A              
     e(  9 -  9) =     -6.73260  eV     1   --> A              
     e( 10 - 10) =     -6.54518  eV     1   --> B              
     e( 11 - 11) =     -6.51101  eV     1   --> A              
     e( 12 - 12) =     -6.46714  eV     1   --> B              
     e( 13 - 13) =     -2.26837  eV     1   --> B              
     e( 14 - 14) =     -2.23454  eV     1   --> A              
     e( 15 - 15) =     -2.15301  eV     1   --> B              
     e( 16 - 16) =     -1.81673  eV     1   --> A              
     e( 17 - 17) =      2.39843  eV     1   --> A              
     e( 18 - 18) =      5.02263  eV     1   --> B              
     e( 19 - 19) =      5.17212  eV     1   --> A              
     e( 20 - 20) =      5.23723  eV     1   --> B              

 **************************************************************************

 **************************************************************************

                    xk=(   0.00000,   0.00000,   0.15000  )

     Band symmetry, C_2  (2)    point group:

     e(  1 -  1) =    -17.08325  eV     1   --> A              
     e(  2 -  2) =    -16.57151  eV     1   --> B              
     e(  3 -  3) =    -16.51267  eV     1   --> A              
     e(  4 -  4) =    -16.49323  eV     1   --> B              
     e(  5 -  5) =     -7.55011  eV     1   --> B              
     e(  6 -  6) =     -7.52036  eV     1   --> A              
     e(  7 -  7) =     -7.44865  eV     1   --> B              
     e(  8 -  8) =     -6.77057  eV     1   --> A              
     e(  9 -  9) =     -6.72381  eV     1   --> A              
     e( 10 - 10) =     -6.57528  eV     1   --> B              
     e( 11 - 11) =     -6.52995  eV     1   --> A              
     e( 12 - 12) =     -6.46268  eV     1   --> B              
     e( 13 - 13) =     -2.30094  eV     1   --> B              
     e( 14 - 14) =     -2.26560  eV     1   --> A              
     e( 15 - 15) =     -2.13023  eV     1   --> B              
     e( 16 - 16) =     -1.83162  eV     1   --> A              
     e( 17 - 17) =      2.52232  eV     1   --> A              
     e( 18 - 18) =      5.01115  eV     1   --> B              
     e( 19 - 19) =      5.27774  eV     1   --> A              
     e( 20 - 20) =      5.35063  eV     1   --> B              

 **************************************************************************

 **************************************************************************

                    xk=(   0.00000,   0.00000,   0.20000  )

     Band symmetry, C_2  (2)    point group:

     e(  1 -  1) =    -17.06162  eV     1   --> A              
     e(  2 -  2) =    -16.59976  eV     1   --> B              
     e(  3 -  3) =    -16.51069  eV     1   --> A              
     e(  4 -  4) =    -16.49038  eV     1   --> B              
     e(  5 -  5) =     -7.54425  eV     1   --> B              
     e(  6 -  6) =     -7.51197  eV     1   --> A              
     e(  7 -  7) =     -7.40545  eV     1   --> B              
     e(  8 -  8) =     -6.79367  eV     1   --> A              
     e(  9 -  9) =     -6.71168  eV     1   --> A              
     e( 10 - 10) =     -6.60676  eV     1   --> B              
     e( 11 - 11) =     -6.55523  eV     1   --> A              
     e( 12 - 12) =     -6.46480  eV     1   --> B              
     e( 13 - 13) =     -2.33327  eV     1   --> B              
     e( 14 - 14) =     -2.30264  eV     1   --> A              
     e( 15 - 15) =     -2.10987  eV     1   --> B              
     e( 16 - 16) =     -1.85151  eV     1   --> A              
     e( 17 - 17) =      2.68803  eV     1   --> A              
     e( 18 - 18) =      4.99719  eV     1   --> B              
     e( 19 - 19) =      5.41886  eV     1   --> A              
     e( 20 - 20) =      5.48637  eV     1   --> B              

 **************************************************************************

 **************************************************************************

                    xk=(   0.00000,   0.00000,   0.25000  )

     Band symmetry, C_2  (2)    point group:

     e(  1 -  1) =    -17.03455  eV     1   --> A              
     e(  2 -  2) =    -16.63260  eV     1   --> B              
     e(  3 -  3) =    -16.50829  eV     1   --> A              
     e(  4 -  4) =    -16.48894  eV     1   --> B              
     e(  5 -  5) =     -7.53441  eV     1   --> B              
     e(  6 -  6) =     -7.50261  eV     1   --> A              
     e(  7 -  7) =     -7.35551  eV     1   --> B              
     e(  8 -  8) =     -6.82248  eV     1   --> A              
     e(  9 -  9) =     -6.69648  eV     1   --> A              
     e( 10 - 10) =     -6.63773  eV     1   --> B              
     e( 11 - 11) =     -6.58514  eV     1   --> A              
     e( 12 - 12) =     -6.47311  eV     1   --> B              
     e( 13 - 13) =     -2.36414  eV     1   --> B              
     e( 14 - 14) =     -2.34115  eV     1   --> A              
     e( 15 - 15) =     -2.09138  eV     1   --> B              
     e( 16 - 16) =     -1.87511  eV     1   --> A              
     e( 17 - 17) =      2.88909  eV     1   --> A              
     e( 18 - 18) =      4.96400  eV     1   --> B              
     e( 19 - 19) =      5.58820  eV     1   --> A              
     e( 20 - 20) =      5.64027  eV     1   --> B              

 **************************************************************************

 **************************************************************************

                    xk=(   0.00000,   0.00000,   0.30000  )

     Band symmetry, C_2  (2)    point group:

     e(  1 -  1) =    -17.00262  eV     1   --> A              
     e(  2 -  2) =    -16.66951  eV     1   --> B              
     e(  3 -  3) =    -16.50561  eV     1   --> A              
     e(  4 -  4) =    -16.48861  eV     1   --> B              
     e(  5 -  5) =     -7.52209  eV     1   --> B              
     e(  6 -  6) =     -7.49333  eV     1   --> A              
     e(  7 -  7) =     -7.29991  eV     1   --> B              
     e(  8 -  8) =     -6.85683  eV     1   --> A              
     e(  9 -  9) =     -6.67914  eV     1   --> A              
     e( 10 - 10) =     -6.66622  eV     1   --> B              
     e( 11 - 11) =     -6.61678  eV     1   --> A              
     e( 12 - 12) =     -6.48696  eV     1   --> B              
     e( 13 - 13) =     -2.39226  eV     1   --> B              
     e( 14 - 14) =     -2.37722  eV     1   --> A              
     e( 15 - 15) =     -2.07415  eV     1   --> B              
     e( 16 - 16) =     -1.90099  eV     1   --> A              
     e( 17 - 17) =      3.11830  eV     1   --> A              
     e( 18 - 18) =      4.89416  eV     1   --> B              
     e( 19 - 19) =      5.77516  eV     1   --> A              
     e( 20 - 20) =      5.80587  eV     1   --> B              

 **************************************************************************

 **************************************************************************

                    xk=(   0.00000,   0.00000,   0.35000  )

     Band symmetry, C_2  (2)    point group:

     e(  1 -  1) =    -16.96646  eV     1   --> A              
     e(  2 -  2) =    -16.70973  eV     1   --> B              
     e(  3 -  3) =    -16.50276  eV     1   --> A              
     e(  4 -  4) =    -16.48915  eV     1   --> B              
     e(  5 -  5) =     -7.50890  eV     1   --> B              
     e(  6 -  6) =     -7.48532  eV     1   --> A              
     e(  7 -  7) =     -7.24001  eV     1   --> B              
     e(  8 -  8) =     -6.89690  eV     1   --> A              
     e(  9 -  9) =     -6.69014  eV     1   --> B              
     e( 10 - 10) =     -6.66726  eV     1   --> A              
     e( 11 - 11) =     -6.63977  eV     1   --> A              
     e( 12 - 12) =     -6.50546  eV     1   --> B              
     e( 13 - 13) =     -2.41624  eV     1   --> B              
     e( 14 - 14) =     -2.40775  eV     1   --> A              
     e( 15 - 15) =     -2.05728  eV     1   --> B              
     e( 16 - 16) =     -1.92763  eV     1   --> A              
     e( 17 - 17) =      3.36803  eV     1   --> A              
     e( 18 - 18) =      4.77579  eV     1   --> B              
     e( 19 - 19) =      5.96429  eV     1   --> A              
     e( 20 - 20) =      5.97321  eV     1   --> B              

 **************************************************************************

 **************************************************************************

                    xk=(   0.00000,   0.00000,   0.40000  )

     Band symmetry, C_2  (2)    point group:

     e(  1 -  1) =    -16.92686  eV     1   --> A              
     e(  2 -  2) =    -16.75236  eV     1   --> B              
     e(  3 -  3) =    -16.49986  eV     1   --> A              
     e(  4 -  4) =    -16.49039  eV     1   --> B              
     e(  5 -  5) =     -7.49650  eV     1   --> B              
     e(  6 -  6) =     -7.47979  eV     1   --> A              
     e(  7 -  7) =     -7.17752  eV     1   --> B              
     e(  8 -  8) =     -6.94304  eV     1   --> A              
     e(  9 -  9) =     -6.70744  eV     1   --> B              
     e( 10 - 10) =     -6.68469  eV     1   --> A              
     e( 11 - 11) =     -6.62710  eV     1   --> A              
     e( 12 - 12) =     -6.52752  eV     1   --> B              
     e( 13 - 13) =     -2.43467  eV     1   --> B              
     e( 14 - 14) =     -2.43066  eV     1   --> A              
     e( 15 - 15) =     -2.03993  eV     1   --> B              
     e( 16 - 16) =     -1.95370  eV     1   --> A              
     e( 17 - 17) =      3.63013  eV     1   --> A              
     e( 18 - 18) =      4.60730  eV     1   --> B              
     e( 19 - 19) =      6.12664  eV     1   --> B              
     e( 20 - 20) =      6.13307  eV     1   --> A              

 **************************************************************************

 **************************************************************************

                    xk=(   0.00000,   0.00000,   0.45000  )

     Band symmetry, C_2  (2)    point group:

     e(  1 -  1) =    -16.88469  eV     1   --> A              
     e(  2 -  2) =    -16.79642  eV     1   --> B              
     e(  3 -  3) =    -16.49706  eV     1   --> A              
     e(  4 -  4) =    -16.49220  eV     1   --> B              
     e(  5 -  5) =     -7.48648  eV     1   --> B              
     e(  6 -  6) =     -7.47782  eV     1   --> A              
     e(  7 -  7) =     -7.11449  eV     1   --> B              
     e(  8 -  8) =     -6.99535  eV     1   --> A              
     e(  9 -  9) =     -6.71629  eV     1   --> B              
     e( 10 - 10) =     -6.70432  eV     1   --> A              
     e( 11 - 11) =     -6.60331  eV     1   --> A              
     e( 12 - 12) =     -6.55201  eV     1   --> B              
     e( 13 - 13) =     -2.44630  eV     1   --> B              
     e( 14 - 14) =     -2.44486  eV     1   --> A              
     e( 15 - 15) =     -2.02134  eV     1   --> B              
     e( 16 - 16) =     -1.97832  eV     1   --> A              
     e( 17 - 17) =      3.89575  eV     1   --> A              
     e( 18 - 18) =      4.39632  eV     1   --> B              
     e( 19 - 19) =      6.24230  eV     1   --> B              
     e( 20 - 20) =      6.25145  eV     1   --> A              

 **************************************************************************

 **************************************************************************

                    xk=(   0.00000,   0.00000,  -0.50000  )

     zone border point and non-symmorphic group 
     symmetry decomposition not available

 **************************************************************************

 **************************************************************************

                    xk=(   0.00000,   0.05000,   0.05000  )

     point group C_1 (1)    
     there are  1 classes
     the character table:

       E    
A      1.00

     the symmetry operations in each class and the name of the first element:

     E        1
                                                                 

     Band symmetry, C_1 (1)     point group:

     e(  1 -  1) =    -17.10540  eV     1   --> A              
     e(  2 -  2) =    -16.53529  eV     1   --> A              
     e(  3 -  3) =    -16.51683  eV     1   --> A              
     e(  4 -  4) =    -16.50114  eV     1   --> A              
     e(  5 -  5) =     -7.54734  eV     1   --> A              
     e(  6 -  6) =     -7.53129  eV     1   --> A              
     e(  7 -  7) =     -7.50142  eV     1   --> A              
     e(  8 -  8) =     -6.74413  eV     1   --> A              
     e(  9 -  9) =     -6.73883  eV     1   --> A              
     e( 10 - 10) =     -6.52561  eV     1   --> A              
     e( 11 - 11) =     -6.50920  eV     1   --> A              
     e( 12 - 12) =     -6.46989  eV     1   --> A              
     e( 13 - 13) =     -2.24844  eV     1   --> A              
     e( 14 - 14) =     -2.22284  eV     1   --> A              
     e( 15 - 15) =     -2.16668  eV     1   --> A              
     e( 16 - 16) =     -1.81062  eV     1   --> A              
     e( 17 - 17) =      2.34743  eV     1   --> A              
     e( 18 - 18) =      5.03677  eV     1   --> A              
     e( 19 - 19) =      5.12462  eV     1   --> A              
     e( 20 - 20) =      5.18346  eV     1   --> A              

 **************************************************************************

 **************************************************************************

                    xk=(   0.00000,   0.05000,   0.10000  )

     Band symmetry, C_1 (1)     point group:

     e(  1 -  1) =    -17.09585  eV     1   --> A              
     e(  2 -  2) =    -16.55077  eV     1   --> A              
     e(  3 -  3) =    -16.51708  eV     1   --> A              
     e(  4 -  4) =    -16.49582  eV     1   --> A              
     e(  5 -  5) =     -7.54954  eV     1   --> A              
     e(  6 -  6) =     -7.52800  eV     1   --> A              
     e(  7 -  7) =     -7.47650  eV     1   --> A              
     e(  8 -  8) =     -6.75324  eV     1   --> A              
     e(  9 -  9) =     -6.73512  eV     1   --> A              
     e( 10 - 10) =     -6.54712  eV     1   --> A              
     e( 11 - 11) =     -6.52393  eV     1   --> A              
     e( 12 - 12) =     -6.46043  eV     1   --> A              
     e( 13 - 13) =     -2.27412  eV     1   --> A              
     e( 14 - 14) =     -2.24398  eV     1   --> A              
     e( 15 - 15) =     -2.14604  eV     1   --> A              
     e( 16 - 16) =     -1.81968  eV     1   --> A              
     e( 17 - 17) =      2.42336  eV     1   --> A              
     e( 18 - 18) =      5.02670  eV     1   --> A              
     e( 19 - 19) =      5.18522  eV     1   --> A              
     e( 20 - 20) =      5.26447  eV     1   --> A              

 **************************************************************************

 **************************************************************************

                    xk=(   0.00000,   0.05000,   0.15000  )

     Band symmetry, C_1 (1)     point group:

     e(  1 -  1) =    -17.08017  eV     1   --> A              
     e(  2 -  2) =    -16.57284  eV     1   --> A              
     e(  3 -  3) =    -16.51586  eV     1   --> A              
     e(  4 -  4) =    -16.49203  eV     1   --> A              
     e(  5 -  5) =     -7.54792  eV     1   --> A              
     e(  6 -  6) =     -7.52158  eV     1   --> A              
     e(  7 -  7) =     -7.44256  eV     1   --> A              
     e(  8 -  8) =     -6.76965  eV     1   --> A              
     e(  9 -  9) =     -6.72769  eV     1   --> A              
     e( 10 - 10) =     -6.57523  eV     1   --> A              
     e( 11 - 11) =     -6.54279  eV     1   --> A              
     e( 12 - 12) =     -6.45629  eV     1   --> A              
     e( 13 - 13) =     -2.30413  eV     1   --> A              
     e( 14 - 14) =     -2.27407  eV     1   --> A              
     e( 15 - 15) =     -2.12541  eV     1   --> A              
     e( 16 - 16) =     -1.83440  eV     1   --> A              
     e( 17 - 17) =      2.54605  eV     1   --> A              
     e( 18 - 18) =      5.02090  eV     1   --> A              
     e( 19 - 19) =      5.28549  eV     1   --> A              
     e( 20 - 20) =      5.37636  eV     1   --> A              

 **************************************************************************

 **************************************************************************

                    xk=(   0.00000,   0.05000,   0.20000  )

     Band symmetry, C_1 (1)     point group:

     e(  1 -  1) =    -17.05864  eV     1   --> A              
     e(  2 -  2) =    -16.60032  eV     1   --> A              
     e(  3 -  3) =    -16.51387  eV     1   --> A              
     e(  4 -  4) =    -16.48979  eV     1   --> A              
     e(  5 -  5) =     -7.54205  eV     1   --> A              
     e(  6 -  6) =     -7.51313  eV     1   --> A              
     e(  7 -  7) =     -7.40081  eV     1   --> A              
     e(  8 -  8) =     -6.79210  eV     1   --> A              
     e(  9 -  9) =     -6.71810  eV     1   --> A              
     e( 10 - 10) =     -6.60500  eV     1   --> A              
     e( 11 - 11) =     -6.56669  eV     1   --> A              
     e( 12 - 12) =     -6.45825  eV     1   --> A              
     e( 13 - 13) =     -2.33508  eV     1   --> A              
     e( 14 - 14) =     -2.30959  eV     1   --> A              
     e( 15 - 15) =     -2.10629  eV     1   --> A              
     e( 16 - 16) =     -1.85399  eV     1   --> A              
     e( 17 - 17) =      2.71031  eV     1   --> A              
     e( 18 - 18) =      5.01051  eV     1   --> A              
     e( 19 - 19) =      5.41894  eV     1   --> A              
     e( 20 - 20) =      5.51454  eV     1   --> A              

 **************************************************************************

 **************************************************************************

                    xk=(   0.00000,   0.05000,   0.25000  )

     Band symmetry, C_1 (1)     point group:

     e(  1 -  1) =    -17.03172  eV     1   --> A              
     e(  2 -  2) =    -16.63261  eV     1   --> A              
     e(  3 -  3) =    -16.51136  eV     1   --> A              
     e(  4 -  4) =    -16.48884  eV     1   --> A              
     e(  5 -  5) =     -7.53273  eV     1   --> A              
     e(  6 -  6) =     -7.50366  eV     1   --> A              
     e(  7 -  7) =     -7.35214  eV     1   --> A              
     e(  8 -  8) =     -6.82021  eV     1   --> A              
     e(  9 -  9) =     -6.70870  eV     1   --> A              
     e( 10 - 10) =     -6.63248  eV     1   --> A              
     e( 11 - 11) =     -6.59381  eV     1   --> A              
     e( 12 - 12) =     -6.46618  eV     1   --> A              
     e( 13 - 13) =     -2.36515  eV     1   --> A              
     e( 14 - 14) =     -2.34638  eV     1   --> A              
     e( 15 - 15) =     -2.08868  eV     1   --> A              
     e( 16 - 16) =     -1.87721  eV     1   --> A              
     e( 17 - 17) =      2.90982  eV     1   --> A              
     e( 18 - 18) =      4.97957  eV     1   --> A              
     e( 19 - 19) =      5.57746  eV     1   --> A              
     e( 20 - 20) =      5.67482  eV     1   --> A              

 **************************************************************************

 **************************************************************************

                    xk=(   0.00000,   0.05000,   0.30000  )

     Band symmetry, C_1 (1)     point group:

     e(  1 -  1) =    -16.99994  eV     1   --> A              
     e(  2 -  2) =    -16.66908  eV     1   --> A              
     e(  3 -  3) =    -16.50848  eV     1   --> A              
     e(  4 -  4) =    -16.48892  eV     1   --> A              
     e(  5 -  5) =     -7.52119  eV     1   --> A              
     e(  6 -  6) =     -7.49429  eV     1   --> A              
     e(  7 -  7) =     -7.29764  eV     1   --> A              
     e(  8 -  8) =     -6.85402  eV     1   --> A              
     e(  9 -  9) =     -6.70572  eV     1   --> A              
     e( 10 - 10) =     -6.65277  eV     1   --> A              
     e( 11 - 11) =     -6.61863  eV     1   --> A              
     e( 12 - 12) =     -6.47950  eV     1   --> A              
     e( 13 - 13) =     -2.39284  eV     1   --> A              
     e( 14 - 14) =     -2.38071  eV     1   --> A              
     e( 15 - 15) =     -2.07208  eV     1   --> A              
     e( 16 - 16) =     -1.90265  eV     1   --> A              
     e( 17 - 17) =      3.13752  eV     1   --> A              
     e( 18 - 18) =      4.91081  eV     1   --> A              
     e( 19 - 19) =      5.75117  eV     1   --> A              
     e( 20 - 20) =      5.85001  eV     1   --> A              

 **************************************************************************

 **************************************************************************

                    xk=(   0.00000,   0.05000,   0.35000  )

     Band symmetry, C_1 (1)     point group:

     e(  1 -  1) =    -16.96397  eV     1   --> A              
     e(  2 -  2) =    -16.70891  eV     1   --> A              
     e(  3 -  3) =    -16.50539  eV     1   --> A              
     e(  4 -  4) =    -16.48984  eV     1   --> A              
     e(  5 -  5) =     -7.50883  eV     1   --> A              
     e(  6 -  6) =     -7.48628  eV     1   --> A              
     e(  7 -  7) =     -7.23864  eV     1   --> A              
     e(  8 -  8) =     -6.89403  eV     1   --> A              
     e(  9 -  9) =     -6.71430  eV     1   --> A              
     e( 10 - 10) =     -6.67141  eV     1   --> A              
     e( 11 - 11) =     -6.62545  eV     1   --> A              
     e( 12 - 12) =     -6.49736  eV     1   --> A              
     e( 13 - 13) =     -2.41667  eV     1   --> A              
     e( 14 - 14) =     -2.40964  eV     1   --> A              
     e( 15 - 15) =     -2.05575  eV     1   --> A              
     e( 16 - 16) =     -1.92882  eV     1   --> A              
     e( 17 - 17) =      3.38589  eV     1   --> A              
     e( 18 - 18) =      4.79255  eV     1   --> A              
     e( 19 - 19) =      5.92852  eV     1   --> A              
     e( 20 - 20) =      6.02637  eV     1   --> A              

 **************************************************************************

 **************************************************************************

                    xk=(   0.00000,   0.05000,   0.40000  )

     Band symmetry, C_1 (1)     point group:

     e(  1 -  1) =    -16.92459  eV     1   --> A              
     e(  2 -  2) =    -16.75120  eV     1   --> A              
     e(  3 -  3) =    -16.50222  eV     1   --> A              
     e(  4 -  4) =    -16.49144  eV     1   --> A              
     e(  5 -  5) =     -7.49715  eV     1   --> A              
     e(  6 -  6) =     -7.48085  eV     1   --> A              
     e(  7 -  7) =     -7.17676  eV     1   --> A              
     e(  8 -  8) =     -6.94071  eV     1   --> A              
     e(  9 -  9) =     -6.72542  eV     1   --> A              
     e( 10 - 10) =     -6.69471  eV     1   --> A              
     e( 11 - 11) =     -6.61198  eV     1   --> A              
     e( 12 - 12) =     -6.51870  eV     1   --> A              
     e( 13 - 13) =     -2.43510  eV     1   --> A              
     e( 14 - 14) =     -2.43127  eV     1   --> A              
     e( 15 - 15) =     -2.03888  eV     1   --> A              
     e( 16 - 16) =     -1.95444  eV     1   --> A              
     e( 17 - 17) =      3.64691  eV     1   --> A              
     e( 18 - 18) =      4.62363  eV     1   --> A              
     e( 19 - 19) =      6.09457  eV     1   --> A              
     e( 20 - 20) =      6.18053  eV     1   --> A              

 **************************************************************************

 **************************************************************************

                    xk=(   0.00000,   0.05000,   0.45000  )

     Band symmetry, C_1 (1)     point group:

     e(  1 -  1) =    -16.88266  eV     1   --> A              
     e(  2 -  2) =    -16.79495  eV     1   --> A              
     e(  3 -  3) =    -16.49912  eV     1   --> A              
     e(  4 -  4) =    -16.49361  eV     1   --> A              
     e(  5 -  5) =     -7.48758  eV     1   --> A              
     e(  6 -  6) =     -7.47902  eV     1   --> A              
     e(  7 -  7) =     -7.11392  eV     1   --> A              
     e(  8 -  8) =     -6.99385  eV     1   --> A              
     e(  9 -  9) =     -6.73066  eV     1   --> A              
     e( 10 - 10) =     -6.71465  eV     1   --> A              
     e( 11 - 11) =     -6.59078  eV     1   --> A              
     e( 12 - 12) =     -6.54230  eV     1   --> A              
     e( 13 - 13) =     -2.44658  eV     1   --> A              
     e( 14 - 14) =     -2.44479  eV     1   --> A              
     e( 15 - 15) =     -2.02073  eV     1   --> A              
     e( 16 - 16) =     -1.97859  eV     1   --> A              
     e( 17 - 17) =      3.91181  eV     1   --> A              
     e( 18 - 18) =      4.41221  eV     1   --> A              
     e( 19 - 19) =      6.22726  eV     1   --> A              
     e( 20 - 20) =      6.28035  eV     1   --> A              

 **************************************************************************

 **************************************************************************

                    xk=(   0.00000,   0.05000,  -0.50000  )

     zone border point and non-symmorphic group 
     symmetry decomposition not available

 **************************************************************************

 **************************************************************************

                    xk=(   0.00000,   0.10000,   0.10000  )

     point group C_1 (1)    
     there are  1 classes
     the character table:

       E    
A      1.00

     the symmetry operations in each class and the name of the first element:

     E        1
                                                                 

     Band symmetry, C_1 (1)     point group:

     e(  1 -  1) =    -17.08645  eV     1   --> A              
     e(  2 -  2) =    -16.56021  eV     1   --> A              
     e(  3 -  3) =    -16.52117  eV     1   --> A              
     e(  4 -  4) =    -16.49250  eV     1   --> A              
     e(  5 -  5) =     -7.54648  eV     1   --> A              
     e(  6 -  6) =     -7.52754  eV     1   --> A              
     e(  7 -  7) =     -7.45603  eV     1   --> A              
     e(  8 -  8) =     -6.75770  eV     1   --> A              
     e(  9 -  9) =     -6.73679  eV     1   --> A              
     e( 10 - 10) =     -6.55622  eV     1   --> A              
     e( 11 - 11) =     -6.54829  eV     1   --> A              
     e( 12 - 12) =     -6.45127  eV     1   --> A              
     e( 13 - 13) =     -2.29053  eV     1   --> A              
     e( 14 - 14) =     -2.26615  eV     1   --> A              
     e( 15 - 15) =     -2.13100  eV     1   --> A              
     e( 16 - 16) =     -1.82844  eV     1   --> A              
     e( 17 - 17) =      2.49703  eV     1   --> A              
     e( 18 - 18) =      5.03526  eV     1   --> A              
     e( 19 - 19) =      5.23521  eV     1   --> A              
     e( 20 - 20) =      5.33543  eV     1   --> A              

 **************************************************************************

 **************************************************************************

                    xk=(   0.00000,   0.10000,   0.15000  )

     Band symmetry, C_1 (1)     point group:

     e(  1 -  1) =    -17.07099  eV     1   --> A              
     e(  2 -  2) =    -16.57782  eV     1   --> A              
     e(  3 -  3) =    -16.52261  eV     1   --> A              
     e(  4 -  4) =    -16.49017  eV     1   --> A              
     e(  5 -  5) =     -7.54184  eV     1   --> A              
     e(  6 -  6) =     -7.52339  eV     1   --> A              
     e(  7 -  7) =     -7.42598  eV     1   --> A              
     e(  8 -  8) =     -6.76963  eV     1   --> A              
     e(  9 -  9) =     -6.73566  eV     1   --> A              
     e( 10 - 10) =     -6.57913  eV     1   --> A              
     e( 11 - 11) =     -6.56871  eV     1   --> A              
     e( 12 - 12) =     -6.44598  eV     1   --> A              
     e( 13 - 13) =     -2.31370  eV     1   --> A              
     e( 14 - 14) =     -2.29549  eV     1   --> A              
     e( 15 - 15) =     -2.11395  eV     1   --> A              
     e( 16 - 16) =     -1.84257  eV     1   --> A              
     e( 17 - 17) =      2.61629  eV     1   --> A              
     e( 18 - 18) =      5.04555  eV     1   --> A              
     e( 19 - 19) =      5.31930  eV     1   --> A              
     e( 20 - 20) =      5.44400  eV     1   --> A              

 **************************************************************************

 **************************************************************************

                    xk=(   0.00000,   0.10000,   0.20000  )

     Band symmetry, C_1 (1)     point group:

     e(  1 -  1) =    -17.04978  eV     1   --> A              
     e(  2 -  2) =    -16.60253  eV     1   --> A              
     e(  3 -  3) =    -16.52171  eV     1   --> A              
     e(  4 -  4) =    -16.48914  eV     1   --> A              
     e(  5 -  5) =     -7.53565  eV     1   --> A              
     e(  6 -  6) =     -7.51572  eV     1   --> A              
     e(  7 -  7) =     -7.38795  eV     1   --> A              
     e(  8 -  8) =     -6.78883  eV     1   --> A              
     e(  9 -  9) =     -6.73330  eV     1   --> A              
     e( 10 - 10) =     -6.61121  eV     1   --> A              
     e( 11 - 11) =     -6.58391  eV     1   --> A              
     e( 12 - 12) =     -6.44638  eV     1   --> A              
     e( 13 - 13) =     -2.34047  eV     1   --> A              
     e( 14 - 14) =     -2.32803  eV     1   --> A              
     e( 15 - 15) =     -2.09733  eV     1   --> A              
     e( 16 - 16) =     -1.86126  eV     1   --> A              
     e( 17 - 17) =      2.77636  eV     1   --> A              
     e( 18 - 18) =      5.04721  eV     1   --> A              
     e( 19 - 19) =      5.43425  eV     1   --> A              
     e( 20 - 20) =      5.58371  eV     1   --> A              

 **************************************************************************

 **************************************************************************

                    xk=(   0.00000,   0.10000,   0.25000  )

     Band symmetry, C_1 (1)     point group:

     e(  1 -  1) =    -17.02326  eV     1   --> A              
     e(  2 -  2) =    -16.63294  eV     1   --> A              
     e(  3 -  3) =    -16.51944  eV     1   --> A              
     e(  4 -  4) =    -16.48925  eV     1   --> A              
     e(  5 -  5) =     -7.52773  eV     1   --> A              
     e(  6 -  6) =     -7.50624  eV     1   --> A              
     e(  7 -  7) =     -7.34283  eV     1   --> A              
     e(  8 -  8) =     -6.81411  eV     1   --> A              
     e(  9 -  9) =     -6.73449  eV     1   --> A              
     e( 10 - 10) =     -6.64138  eV     1   --> A              
     e( 11 - 11) =     -6.59763  eV     1   --> A              
     e( 12 - 12) =     -6.45253  eV     1   --> A              
     e( 13 - 13) =     -2.36846  eV     1   --> A              
     e( 14 - 14) =     -2.36024  eV     1   --> A              
     e( 15 - 15) =     -2.08162  eV     1   --> A              
     e( 16 - 16) =     -1.88336  eV     1   --> A              
     e( 17 - 17) =      2.97135  eV     1   --> A              
     e( 18 - 18) =      5.02438  eV     1   --> A              
     e( 19 - 19) =      5.57396  eV     1   --> A              
     e( 20 - 20) =      5.74821  eV     1   --> A              

 **************************************************************************

 **************************************************************************

                    xk=(   0.00000,   0.10000,   0.30000  )

     Band symmetry, C_1 (1)     point group:

     e(  1 -  1) =    -16.99197  eV     1   --> A              
     e(  2 -  2) =    -16.66796  eV     1   --> A              
     e(  3 -  3) =    -16.51636  eV     1   --> A              
     e(  4 -  4) =    -16.49033  eV     1   --> A              
     e(  5 -  5) =     -7.51838  eV     1   --> A              
     e(  6 -  6) =     -7.49675  eV     1   --> A              
     e(  7 -  7) =     -7.29159  eV     1   --> A              
     e(  8 -  8) =     -6.84625  eV     1   --> A              
     e(  9 -  9) =     -6.74227  eV     1   --> A              
     e( 10 - 10) =     -6.66798  eV     1   --> A              
     e( 11 - 11) =     -6.60382  eV     1   --> A              
     e( 12 - 12) =     -6.46398  eV     1   --> A              
     e( 13 - 13) =     -2.39590  eV     1   --> A              
     e( 14 - 14) =     -2.38894  eV     1   --> A              
     e( 15 - 15) =     -2.06657  eV     1   --> A              
     e( 16 - 16) =     -1.90749  eV     1   --> A              
     e( 17 - 17) =      3.19462  eV     1   --> A              
     e( 18 - 18) =      4.95968  eV     1   --> A              
     e( 19 - 19) =      5.73216  eV     1   --> A              
     e( 20 - 20) =      5.92712  eV     1   --> A              

 **************************************************************************

 **************************************************************************

                    xk=(   0.00000,   0.10000,   0.35000  )

     Band symmetry, C_1 (1)     point group:

     e(  1 -  1) =    -16.95657  eV     1   --> A              
     e(  2 -  2) =    -16.70659  eV     1   --> A              
     e(  3 -  3) =    -16.51279  eV     1   --> A              
     e(  4 -  4) =    -16.49222  eV     1   --> A              
     e(  5 -  5) =     -7.50834  eV     1   --> A              
     e(  6 -  6) =     -7.48882  eV     1   --> A              
     e(  7 -  7) =     -7.23535  eV     1   --> A              
     e(  8 -  8) =     -6.88675  eV     1   --> A              
     e(  9 -  9) =     -6.75311  eV     1   --> A              
     e( 10 - 10) =     -6.69258  eV     1   --> A              
     e( 11 - 11) =     -6.59887  eV     1   --> A              
     e( 12 - 12) =     -6.47994  eV     1   --> A              
     e( 13 - 13) =     -2.41989  eV     1   --> A              
     e( 14 - 14) =     -2.41283  eV     1   --> A              
     e( 15 - 15) =     -2.05160  eV     1   --> A              
     e( 16 - 16) =     -1.93230  eV     1   --> A              
     e( 17 - 17) =      3.43901  eV     1   --> A              
     e( 18 - 18) =      4.84208  eV     1   --> A              
     e( 19 - 19) =      5.90117  eV     1   --> A              
     e( 20 - 20) =      6.10309  eV     1   --> A              

 **************************************************************************

 **************************************************************************

                    xk=(   0.00000,   0.10000,   0.40000  )

     Band symmetry, C_1 (1)     point group:

     e(  1 -  1) =    -16.91784  eV     1   --> A              
     e(  2 -  2) =    -16.74782  eV     1   --> A              
     e(  3 -  3) =    -16.50897  eV     1   --> A              
     e(  4 -  4) =    -16.49478  eV     1   --> A              
     e(  5 -  5) =     -7.49863  eV     1   --> A              
     e(  6 -  6) =     -7.48374  eV     1   --> A              
     e(  7 -  7) =     -7.17550  eV     1   --> A              
     e(  8 -  8) =     -6.93578  eV     1   --> A              
     e(  9 -  9) =     -6.76018  eV     1   --> A              
     e( 10 - 10) =     -6.71589  eV     1   --> A              
     e( 11 - 11) =     -6.58488  eV     1   --> A              
     e( 12 - 12) =     -6.49937  eV     1   --> A              
     e( 13 - 13) =     -2.43764  eV     1   --> A              
     e( 14 - 14) =     -2.43154  eV     1   --> A              
     e( 15 - 15) =     -2.03599  eV     1   --> A              
     e( 16 - 16) =     -1.95657  eV     1   --> A              
     e( 17 - 17) =      3.69683  eV     1   --> A              
     e( 18 - 18) =      4.67206  eV     1   --> A              
     e( 19 - 19) =      6.06923  eV     1   --> A              
     e( 20 - 20) =      6.24858  eV     1   --> A              

 **************************************************************************

 **************************************************************************

                    xk=(   0.00000,   0.10000,   0.45000  )

     Band symmetry, C_1 (1)     point group:

     e(  1 -  1) =    -16.87663  eV     1   --> A              
     e(  2 -  2) =    -16.79060  eV     1   --> A              
     e(  3 -  3) =    -16.50510  eV     1   --> A              
     e(  4 -  4) =    -16.49786  eV     1   --> A              
     e(  5 -  5) =     -7.49036  eV     1   --> A              
     e(  6 -  6) =     -7.48226  eV     1   --> A              
     e(  7 -  7) =     -7.11364  eV     1   --> A              
     e(  8 -  8) =     -6.99155  eV     1   --> A              
     e(  9 -  9) =     -6.75981  eV     1   --> A              
     e( 10 - 10) =     -6.73625  eV     1   --> A              
     e( 11 - 11) =     -6.56555  eV     1   --> A              
     e( 12 - 12) =     -6.52105  eV     1   --> A              
     e( 13 - 13) =     -2.44774  eV     1   --> A              
     e( 14 - 14) =     -2.44419  eV     1   --> A              
     e( 15 - 15) =     -2.01904  eV     1   --> A              
     e( 16 - 16) =     -1.97939  eV     1   --> A              
     e( 17 - 17) =      3.95958  eV     1   --> A              
     e( 18 - 18) =      4.45942  eV     1   --> A              
     e( 19 - 19) =      6.21684  eV     1   --> A              
     e( 20 - 20) =      6.32749  eV     1   --> A              

 **************************************************************************

 **************************************************************************

                    xk=(   0.00000,   0.10000,  -0.50000  )

     zone border point and non-symmorphic group 
     symmetry decomposition not available

 **************************************************************************

 **************************************************************************

                    xk=(   0.00000,   0.15000,   0.15000  )

     point group C_1 (1)    
     there are  1 classes
     the character table:

       E    
A      1.00

     the symmetry operations in each class and the name of the first element:

     E        1
                                                                 

     Band symmetry, C_1 (1)     point group:

     e(  1 -  1) =    -17.05591  eV     1   --> A              
     e(  2 -  2) =    -16.58897  eV     1   --> A              
     e(  3 -  3) =    -16.52854  eV     1   --> A              
     e(  4 -  4) =    -16.48924  eV     1   --> A              
     e(  5 -  5) =     -7.53425  eV     1   --> A              
     e(  6 -  6) =     -7.52171  eV     1   --> A              
     e(  7 -  7) =     -7.40169  eV     1   --> A              
     e(  8 -  8) =     -6.78014  eV     1   --> A              
     e(  9 -  9) =     -6.73636  eV     1   --> A              
     e( 10 - 10) =     -6.61078  eV     1   --> A              
     e( 11 - 11) =     -6.57583  eV     1   --> A              
     e( 12 - 12) =     -6.43984  eV     1   --> A              
     e( 13 - 13) =     -2.33156  eV     1   --> A              
     e( 14 - 14) =     -2.32085  eV     1   --> A              
     e( 15 - 15) =     -2.10033  eV     1   --> A              
     e( 16 - 16) =     -1.85561  eV     1   --> A              
     e( 17 - 17) =      2.73027  eV     1   --> A              
     e( 18 - 18) =      5.07298  eV     1   --> A              
     e( 19 - 19) =      5.39031  eV     1   --> A              
     e( 20 - 20) =      5.54336  eV     1   --> A              

 **************************************************************************

 **************************************************************************

                    xk=(   0.00000,   0.15000,   0.20000  )

     Band symmetry, C_1 (1)     point group:

     e(  1 -  1) =    -17.03522  eV     1   --> A              
     e(  2 -  2) =    -16.60812  eV     1   --> A              
     e(  3 -  3) =    -16.53111  eV     1   --> A              
     e(  4 -  4) =    -16.48954  eV     1   --> A              
     e(  5 -  5) =     -7.52579  eV     1   --> A              
     e(  6 -  6) =     -7.51776  eV     1   --> A              
     e(  7 -  7) =     -7.36904  eV     1   --> A              
     e(  8 -  8) =     -6.79073  eV     1   --> A              
     e(  9 -  9) =     -6.74717  eV     1   --> A              
     e( 10 - 10) =     -6.64099  eV     1   --> A              
     e( 11 - 11) =     -6.58439  eV     1   --> A              
     e( 12 - 12) =     -6.43764  eV     1   --> A              
     e( 13 - 13) =     -2.35323  eV     1   --> A              
     e( 14 - 14) =     -2.34905  eV     1   --> A              
     e( 15 - 15) =     -2.08612  eV     1   --> A              
     e( 16 - 16) =     -1.87279  eV     1   --> A              
     e( 17 - 17) =      2.88387  eV     1   --> A              
     e( 18 - 18) =      5.09654  eV     1   --> A              
     e( 19 - 19) =      5.47670  eV     1   --> A              
     e( 20 - 20) =      5.68177  eV     1   --> A              

 **************************************************************************

 **************************************************************************

                    xk=(   0.00000,   0.15000,   0.25000  )

     Band symmetry, C_1 (1)     point group:

     e(  1 -  1) =    -17.00936  eV     1   --> A              
     e(  2 -  2) =    -16.63460  eV     1   --> A              
     e(  3 -  3) =    -16.53053  eV     1   --> A              
     e(  4 -  4) =    -16.49097  eV     1   --> A              
     e(  5 -  5) =     -7.51964  eV     1   --> A              
     e(  6 -  6) =     -7.50908  eV     1   --> A              
     e(  7 -  7) =     -7.32947  eV     1   --> A              
     e(  8 -  8) =     -6.80701  eV     1   --> A              
     e(  9 -  9) =     -6.76525  eV     1   --> A              
     e( 10 - 10) =     -6.66839  eV     1   --> A              
     e( 11 - 11) =     -6.58811  eV     1   --> A              
     e( 12 - 12) =     -6.44097  eV     1   --> A              
     e( 13 - 13) =     -2.38121  eV     1   --> A              
     e( 14 - 14) =     -2.37210  eV     1   --> A              
     e( 15 - 15) =     -2.07242  eV     1   --> A              
     e( 16 - 16) =     -1.89304  eV     1   --> A              
     e( 17 - 17) =      3.07179  eV     1   --> A              
     e( 18 - 18) =      5.09172  eV     1   --> A              
     e( 19 - 19) =      5.58752  eV     1   --> A              
     e( 20 - 20) =      5.84652  eV     1   --> A              

 **************************************************************************

 **************************************************************************

                    xk=(   0.00000,   0.15000,   0.30000  )

     Band symmetry, C_1 (1)     point group:

     e(  1 -  1) =    -16.97888  eV     1   --> A              
     e(  2 -  2) =    -16.66678  eV     1   --> A              
     e(  3 -  3) =    -16.52790  eV     1   --> A              
     e(  4 -  4) =    -16.49338  eV     1   --> A              
     e(  5 -  5) =     -7.51363  eV     1   --> A              
     e(  6 -  6) =     -7.49960  eV     1   --> A              
     e(  7 -  7) =     -7.28361  eV     1   --> A              
     e(  8 -  8) =     -6.83576  eV     1   --> A              
     e(  9 -  9) =     -6.78381  eV     1   --> A              
     e( 10 - 10) =     -6.69118  eV     1   --> A              
     e( 11 - 11) =     -6.58524  eV     1   --> A              
     e( 12 - 12) =     -6.44954  eV     1   --> A              
     e( 13 - 13) =     -2.40710  eV     1   --> A              
     e( 14 - 14) =     -2.39395  eV     1   --> A              
     e( 15 - 15) =     -2.05916  eV     1   --> A              
     e( 16 - 16) =     -1.91510  eV     1   --> A              
     e( 17 - 17) =      3.28805  eV     1   --> A              
     e( 18 - 18) =      5.03713  eV     1   --> A              
     e( 19 - 19) =      5.72261  eV     1   --> A              
     e( 20 - 20) =      6.02563  eV     1   --> A              

 **************************************************************************

 **************************************************************************

                    xk=(   0.00000,   0.15000,   0.35000  )

     Band symmetry, C_1 (1)     point group:

     e(  1 -  1) =    -16.94444  eV     1   --> A              
     e(  2 -  2) =    -16.70317  eV     1   --> A              
     e(  3 -  3) =    -16.52405  eV     1   --> A              
     e(  4 -  4) =    -16.49662  eV     1   --> A              
     e(  5 -  5) =     -7.50690  eV     1   --> A              
     e(  6 -  6) =     -7.49205  eV     1   --> A              
     e(  7 -  7) =     -7.23227  eV     1   --> A              
     e(  8 -  8) =     -6.88092  eV     1   --> A              
     e(  9 -  9) =     -6.79279  eV     1   --> A              
     e( 10 - 10) =     -6.71258  eV     1   --> A              
     e( 11 - 11) =     -6.57527  eV     1   --> A              
     e( 12 - 12) =     -6.46272  eV     1   --> A              
     e( 13 - 13) =     -2.42788  eV     1   --> A              
     e( 14 - 14) =     -2.41399  eV     1   --> A              
     e( 15 - 15) =     -2.04586  eV     1   --> A              
     e( 16 - 16) =     -1.93774  eV     1   --> A              
     e( 17 - 17) =      3.52608  eV     1   --> A              
     e( 18 - 18) =      4.92219  eV     1   --> A              
     e( 19 - 19) =      5.87785  eV     1   --> A              
     e( 20 - 20) =      6.19903  eV     1   --> A              

 **************************************************************************

 **************************************************************************

                    xk=(   0.00000,   0.15000,   0.40000  )

     Band symmetry, C_1 (1)     point group:

     e(  1 -  1) =    -16.90679  eV     1   --> A              
     e(  2 -  2) =    -16.74251  eV     1   --> A              
     e(  3 -  3) =    -16.51951  eV     1   --> A              
     e(  4 -  4) =    -16.50052  eV     1   --> A              
     e(  5 -  5) =     -7.49995  eV     1   --> A              
     e(  6 -  6) =     -7.48757  eV     1   --> A              
     e(  7 -  7) =     -7.17645  eV     1   --> A              
     e(  8 -  8) =     -6.93580  eV     1   --> A              
     e(  9 -  9) =     -6.79286  eV     1   --> A              
     e( 10 - 10) =     -6.73406  eV     1   --> A              
     e( 11 - 11) =     -6.55968  eV     1   --> A              
     e( 12 - 12) =     -6.47959  eV     1   --> A              
     e( 13 - 13) =     -2.44219  eV     1   --> A              
     e( 14 - 14) =     -2.43080  eV     1   --> A              
     e( 15 - 15) =     -2.03189  eV     1   --> A              
     e( 16 - 16) =     -1.95987  eV     1   --> A              
     e( 17 - 17) =      3.77869  eV     1   --> A              
     e( 18 - 18) =      4.75087  eV     1   --> A              
     e( 19 - 19) =      6.04377  eV     1   --> A              
     e( 20 - 20) =      6.33306  eV     1   --> A              

 **************************************************************************

 **************************************************************************

                    xk=(   0.00000,   0.15000,   0.45000  )

     Band symmetry, C_1 (1)     point group:

     e(  1 -  1) =    -16.86681  eV     1   --> A              
     e(  2 -  2) =    -16.78362  eV     1   --> A              
     e(  3 -  3) =    -16.51464  eV     1   --> A              
     e(  4 -  4) =    -16.50494  eV     1   --> A              
     e(  5 -  5) =     -7.49358  eV     1   --> A              
     e(  6 -  6) =     -7.48657  eV     1   --> A              
     e(  7 -  7) =     -7.11736  eV     1   --> A              
     e(  8 -  8) =     -6.99524  eV     1   --> A              
     e(  9 -  9) =     -6.78567  eV     1   --> A              
     e( 10 - 10) =     -6.75460  eV     1   --> A              
     e( 11 - 11) =     -6.54057  eV     1   --> A              
     e( 12 - 12) =     -6.49903  eV     1   --> A              
     e( 13 - 13) =     -2.44940  eV     1   --> A              
     e( 14 - 14) =     -2.44303  eV     1   --> A              
     e( 15 - 15) =     -2.01663  eV     1   --> A              
     e( 16 - 16) =     -1.98066  eV     1   --> A              
     e( 17 - 17) =      4.03785  eV     1   --> A              
     e( 18 - 18) =      4.53643  eV     1   --> A              
     e( 19 - 19) =      6.20394  eV     1   --> A              
     e( 20 - 20) =      6.38343  eV     1   --> A              

 **************************************************************************

 **************************************************************************

                    xk=(   0.00000,   0.15000,  -0.50000  )

     zone border point and non-symmorphic group 
     symmetry decomposition not available

 **************************************************************************

 **************************************************************************

                    xk=(   0.00000,   0.20000,   0.20000  )

     point group C_1 (1)    
     there are  1 classes
     the character table:

       E    
A      1.00

     the symmetry operations in each class and the name of the first element:

     E        1
                                                                 

     Band symmetry, C_1 (1)     point group:

     e(  1 -  1) =    -17.01526  eV     1   --> A              
     e(  2 -  2) =    -16.61986  eV     1   --> A              
     e(  3 -  3) =    -16.53868  eV     1   --> A              
     e(  4 -  4) =    -16.49125  eV     1   --> A              
     e(  5 -  5) =     -7.51978  eV     1   --> A              
     e(  6 -  6) =     -7.51170  eV     1   --> A              
     e(  7 -  7) =     -7.34596  eV     1   --> A              
     e(  8 -  8) =     -6.80939  eV     1   --> A              
     e(  9 -  9) =     -6.75068  eV     1   --> A              
     e( 10 - 10) =     -6.67021  eV     1   --> A              
     e( 11 - 11) =     -6.58407  eV     1   --> A              
     e( 12 - 12) =     -6.43514  eV     1   --> A              
     e( 13 - 13) =     -2.38006  eV     1   --> A              
     e( 14 - 14) =     -2.36099  eV     1   --> A              
     e( 15 - 15) =     -2.07477  eV     1   --> A              
     e( 16 - 16) =     -1.88781  eV     1   --> A              
     e( 17 - 17) =      3.02920  eV     1   --> A              
     e( 18 - 18) =      5.13847  eV     1   --> A              
     e( 19 - 19) =      5.55192  eV     1   --> A              
     e( 20 - 20) =      5.80420  eV     1   --> A              

 **************************************************************************

 **************************************************************************

                    xk=(   0.00000,   0.20000,   0.25000  )

     Band symmetry, C_1 (1)     point group:

     e(  1 -  1) =    -16.99034  eV     1   --> A              
     e(  2 -  2) =    -16.63962  eV     1   --> A              
     e(  3 -  3) =    -16.54207  eV     1   --> A              
     e(  4 -  4) =    -16.49418  eV     1   --> A              
     e(  5 -  5) =     -7.51217  eV     1   --> A              
     e(  6 -  6) =     -7.50786  eV     1   --> A              
     e(  7 -  7) =     -7.31402  eV     1   --> A              
     e(  8 -  8) =     -6.81571  eV     1   --> A              
     e(  9 -  9) =     -6.78850  eV     1   --> A              
     e( 10 - 10) =     -6.68765  eV     1   --> A              
     e( 11 - 11) =     -6.58068  eV     1   --> A              
     e( 12 - 12) =     -6.43532  eV     1   --> A              
     e( 13 - 13) =     -2.40204  eV     1   --> A              
     e( 14 - 14) =     -2.37955  eV     1   --> A              
     e( 15 - 15) =     -2.06289  eV     1   --> A              
     e( 16 - 16) =     -1.90556  eV     1   --> A              
     e( 17 - 17) =      3.20813  eV     1   --> A              
     e( 18 - 18) =      5.16607  eV     1   --> A              
     e( 19 - 19) =      5.61862  eV     1   --> A              
     e( 20 - 20) =      5.96604  eV     1   --> A              

 **************************************************************************

 **************************************************************************

                    xk=(   0.00000,   0.20000,   0.30000  )

     Band symmetry, C_1 (1)     point group:

     e(  1 -  1) =    -16.96099  eV     1   --> A              
     e(  2 -  2) =    -16.66677  eV     1   --> A              
     e(  3 -  3) =    -16.54145  eV     1   --> A              
     e(  4 -  4) =    -16.49816  eV     1   --> A              
     e(  5 -  5) =     -7.50842  eV     1   --> A              
     e(  6 -  6) =     -7.50027  eV     1   --> A              
     e(  7 -  7) =     -7.27582  eV     1   --> A              
     e(  8 -  8) =     -6.84130  eV     1   --> A              
     e(  9 -  9) =     -6.81525  eV     1   --> A              
     e( 10 - 10) =     -6.70346  eV     1   --> A              
     e( 11 - 11) =     -6.57175  eV     1   --> A              
     e( 12 - 12) =     -6.44064  eV     1   --> A              
     e( 13 - 13) =     -2.42184  eV     1   --> A              
     e( 14 - 14) =     -2.39777  eV     1   --> A              
     e( 15 - 15) =     -2.05129  eV     1   --> A              
     e( 16 - 16) =     -1.92488  eV     1   --> A              
     e( 17 - 17) =      3.41532  eV     1   --> A              
     e( 18 - 18) =      5.13518  eV     1   --> A              
     e( 19 - 19) =      5.71455  eV     1   --> A              
     e( 20 - 20) =      6.14285  eV     1   --> A              

 **************************************************************************

 **************************************************************************

                    xk=(   0.00000,   0.20000,   0.35000  )

     Band symmetry, C_1 (1)     point group:

     e(  1 -  1) =    -16.92788  eV     1   --> A              
     e(  2 -  2) =    -16.69942  eV     1   --> A              
     e(  3 -  3) =    -16.53808  eV     1   --> A              
     e(  4 -  4) =    -16.50302  eV     1   --> A              
     e(  5 -  5) =     -7.50457  eV     1   --> A              
     e(  6 -  6) =     -7.49419  eV     1   --> A              
     e(  7 -  7) =     -7.23176  eV     1   --> A              
     e(  8 -  8) =     -6.89568  eV     1   --> A              
     e(  9 -  9) =     -6.81469  eV     1   --> A              
     e( 10 - 10) =     -6.72104  eV     1   --> A              
     e( 11 - 11) =     -6.55781  eV     1   --> A              
     e( 12 - 12) =     -6.45067  eV     1   --> A              
     e( 13 - 13) =     -2.43723  eV     1   --> A              
     e( 14 - 14) =     -2.41489  eV     1   --> A              
     e( 15 - 15) =     -2.03960  eV     1   --> A              
     e( 16 - 16) =     -1.94469  eV     1   --> A              
     e( 17 - 17) =      3.64495  eV     1   --> A              
     e( 18 - 18) =      5.02874  eV     1   --> A              
     e( 19 - 19) =      5.84616  eV     1   --> A              
     e( 20 - 20) =      6.31185  eV     1   --> A              

 **************************************************************************

 **************************************************************************

                    xk=(   0.00000,   0.20000,   0.40000  )

     Band symmetry, C_1 (1)     point group:

     e(  1 -  1) =    -16.89176  eV     1   --> A              
     e(  2 -  2) =    -16.73580  eV     1   --> A              
     e(  3 -  3) =    -16.53309  eV     1   --> A              
     e(  4 -  4) =    -16.50858  eV     1   --> A              
     e(  5 -  5) =     -7.50027  eV     1   --> A              
     e(  6 -  6) =     -7.49091  eV     1   --> A              
     e(  7 -  7) =     -7.18250  eV     1   --> A              
     e(  8 -  8) =     -6.95393  eV     1   --> A              
     e(  9 -  9) =     -6.80802  eV     1   --> A              
     e( 10 - 10) =     -6.74056  eV     1   --> A              
     e( 11 - 11) =     -6.54031  eV     1   --> A              
     e( 12 - 12) =     -6.46471  eV     1   --> A              
     e( 13 - 13) =     -2.44704  eV     1   --> A              
     e( 14 - 14) =     -2.42988  eV     1   --> A              
     e( 15 - 15) =     -2.02733  eV     1   --> A              
     e( 16 - 16) =     -1.96408  eV     1   --> A              
     e( 17 - 17) =      3.89053  eV     1   --> A              
     e( 18 - 18) =      4.85718  eV     1   --> A              
     e( 19 - 19) =      6.00391  eV     1   --> A              
     e( 20 - 20) =      6.42756  eV     1   --> A              

 **************************************************************************

 **************************************************************************

                    xk=(   0.00000,   0.20000,   0.45000  )

     Band symmetry, C_1 (1)     point group:

     e(  1 -  1) =    -16.85350  eV     1   --> A              
     e(  2 -  2) =    -16.77443  eV     1   --> A              
     e(  3 -  3) =    -16.52721  eV     1   --> A              
     e(  4 -  4) =    -16.51463  eV     1   --> A              
     e(  5 -  5) =     -7.49599  eV     1   --> A              
     e(  6 -  6) =     -7.49050  eV     1   --> A              
     e(  7 -  7) =     -7.12891  eV     1   --> A              
     e(  8 -  8) =     -7.01329  eV     1   --> A              
     e(  9 -  9) =     -6.79606  eV     1   --> A              
     e( 10 - 10) =     -6.76073  eV     1   --> A              
     e( 11 - 11) =     -6.52086  eV     1   --> A              
     e( 12 - 12) =     -6.48181  eV     1   --> A              
     e( 13 - 13) =     -2.45087  eV     1   --> A              
     e( 14 - 14) =     -2.44155  eV     1   --> A              
     e( 15 - 15) =     -2.01392  eV     1   --> A              
     e( 16 - 16) =     -1.98232  eV     1   --> A              
     e( 17 - 17) =      4.14466  eV     1   --> A              
     e( 18 - 18) =      4.64087  eV     1   --> A              
     e( 19 - 19) =      6.17171  eV     1   --> A              
     e( 20 - 20) =      6.43101  eV     1   --> A              

 **************************************************************************

 **************************************************************************

                    xk=(   0.00000,   0.20000,  -0.50000  )

     zone border point and non-symmorphic group 
     symmetry decomposition not available

 **************************************************************************

 **************************************************************************

                    xk=(   0.00000,   0.25000,   0.25000  )

     point group C_1 (1)    
     there are  1 classes
     the character table:

       E    
A      1.00

     the symmetry operations in each class and the name of the first element:

     E        1
                                                                 

     Band symmetry, C_1 (1)     point group:

     e(  1 -  1) =    -16.96661  eV     1   --> A              
     e(  2 -  2) =    -16.65083  eV     1   --> A              
     e(  3 -  3) =    -16.55083  eV     1   --> A              
     e(  4 -  4) =    -16.49875  eV     1   --> A              
     e(  5 -  5) =     -7.51203  eV     1   --> A              
     e(  6 -  6) =     -7.49616  eV     1   --> A              
     e(  7 -  7) =     -7.29750  eV     1   --> A              
     e(  8 -  8) =     -6.86043  eV     1   --> A              
     e(  9 -  9) =     -6.78699  eV     1   --> A              
     e( 10 - 10) =     -6.68911  eV     1   --> A              
     e( 11 - 11) =     -6.57854  eV     1   --> A              
     e( 12 - 12) =     -6.43679  eV     1   --> A              
     e( 13 - 13) =     -2.42154  eV     1   --> A              
     e( 14 - 14) =     -2.38879  eV     1   --> A              
     e( 15 - 15) =     -2.05376  eV     1   --> A              
     e( 16 - 16) =     -1.92015  eV     1   --> A              
     e( 17 - 17) =      3.37643  eV     1   --> A              
     e( 18 - 18) =      5.21592  eV     1   --> A              
     e( 19 - 19) =      5.67607  eV     1   --> A              
     e( 20 - 20) =      6.10361  eV     1   --> A              

 **************************************************************************

 **************************************************************************

                    xk=(   0.00000,   0.25000,   0.30000  )

     Band symmetry, C_1 (1)     point group:

     e(  1 -  1) =    -16.93872  eV     1   --> A              
     e(  2 -  2) =    -16.67013  eV     1   --> A              
     e(  3 -  3) =    -16.55447  eV     1   --> A              
     e(  4 -  4) =    -16.50450  eV     1   --> A              
     e(  5 -  5) =     -7.50704  eV     1   --> A              
     e(  6 -  6) =     -7.49394  eV     1   --> A              
     e(  7 -  7) =     -7.26926  eV     1   --> A              
     e(  8 -  8) =     -6.89342  eV     1   --> A              
     e(  9 -  9) =     -6.80539  eV     1   --> A              
     e( 10 - 10) =     -6.70051  eV     1   --> A              
     e( 11 - 11) =     -6.56458  eV     1   --> A              
     e( 12 - 12) =     -6.43889  eV     1   --> A              
     e( 13 - 13) =     -2.43541  eV     1   --> A              
     e( 14 - 14) =     -2.40278  eV     1   --> A              
     e( 15 - 15) =     -2.04366  eV     1   --> A              
     e( 16 - 16) =     -1.93619  eV     1   --> A              
     e( 17 - 17) =      3.57311  eV     1   --> A              
     e( 18 - 18) =      5.23472  eV     1   --> A              
     e( 19 - 19) =      5.70510  eV     1   --> A              
     e( 20 - 20) =      6.27547  eV     1   --> A              

 **************************************************************************

 **************************************************************************

                    xk=(   0.00000,   0.25000,   0.35000  )

     Band symmetry, C_1 (1)     point group:

     e(  1 -  1) =    -16.90732  eV     1   --> A              
     e(  2 -  2) =    -16.69677  eV     1   --> A              
     e(  3 -  3) =    -16.55323  eV     1   --> A              
     e(  4 -  4) =    -16.51122  eV     1   --> A              
     e(  5 -  5) =     -7.50317  eV     1   --> A              
     e(  6 -  6) =     -7.49216  eV     1   --> A              
     e(  7 -  7) =     -7.23488  eV     1   --> A              
     e(  8 -  8) =     -6.94048  eV     1   --> A              
     e(  9 -  9) =     -6.80791  eV     1   --> A              
     e( 10 - 10) =     -6.71545  eV     1   --> A              
     e( 11 - 11) =     -6.54728  eV     1   --> A              
     e( 12 - 12) =     -6.44578  eV     1   --> A              
     e( 13 - 13) =     -2.44547  eV     1   --> A              
     e( 14 - 14) =     -2.41661  eV     1   --> A              
     e( 15 - 15) =     -2.03348  eV     1   --> A              
     e( 16 - 16) =     -1.95270  eV     1   --> A              
     e( 17 - 17) =      3.79277  eV     1   --> A              
     e( 18 - 18) =      5.15421  eV     1   --> A              
     e( 19 - 19) =      5.79275  eV     1   --> A              
     e( 20 - 20) =      6.43607  eV     1   --> A              

 **************************************************************************

 **************************************************************************

                    xk=(   0.00000,   0.25000,   0.40000  )

     Band symmetry, C_1 (1)     point group:

     e(  1 -  1) =    -16.87318  eV     1   --> A              
     e(  2 -  2) =    -16.72863  eV     1   --> A              
     e(  3 -  3) =    -16.54864  eV     1   --> A              
     e(  4 -  4) =    -16.51867  eV     1   --> A              
     e(  5 -  5) =     -7.49989  eV     1   --> A              
     e(  6 -  6) =     -7.49154  eV     1   --> A              
     e(  7 -  7) =     -7.19463  eV     1   --> A              
     e(  8 -  8) =     -6.99315  eV     1   --> A              
     e(  9 -  9) =     -6.80094  eV     1   --> A              
     e( 10 - 10) =     -6.73315  eV     1   --> A              
     e( 11 - 11) =     -6.52805  eV     1   --> A              
     e( 12 - 12) =     -6.45694  eV     1   --> A              
     e( 13 - 13) =     -2.45091  eV     1   --> A              
     e( 14 - 14) =     -2.42934  eV     1   --> A              
     e( 15 - 15) =     -2.02281  eV     1   --> A              
     e( 16 - 16) =     -1.96893  eV     1   --> A              
     e( 17 - 17) =      4.02974  eV     1   --> A              
[...]
     e( 18 - 18) =      5.16479  eV     1   --> A              
     e( 19 - 19) =      5.53483  eV     1   --> A              
     e( 20 - 20) =      5.59184  eV     1   --> A              

 **************************************************************************

 **************************************************************************

                    xk=(   0.35000,   0.35000,  -0.50000  )

     Band symmetry, C_1 (1)     point group:

     e(  1 -  2) =    -16.71877  eV     2   -->   2 A              
     e(  3 -  4) =    -16.60884  eV     2   -->   2 A              
     e(  5 -  6) =     -7.58520  eV     2   -->   2 A              
     e(  7 -  8) =     -7.43770  eV     2   -->   2 A              
     e(  9 - 10) =     -6.49375  eV     2   -->   2 A              
     e( 11 - 12) =     -6.39045  eV     2   -->   2 A              
     e( 13 - 14) =     -2.30575  eV     2   -->   2 A              
     e( 15 - 16) =     -2.02382  eV     2   -->   2 A              
     e( 17 - 18) =      4.99924  eV     2   -->   2 A              
     e( 19 - 20) =      5.55777  eV     2   -->   2 A              

 **************************************************************************

 **************************************************************************

                    xk=(   0.35000,   0.40000,   0.40000  )

     Band symmetry, C_1 (1)     point group:

     e(  1 -  1) =    -16.74101  eV     1   --> A              
     e(  2 -  2) =    -16.68921  eV     1   --> A              
     e(  3 -  3) =    -16.62361  eV     1   --> A              
     e(  4 -  4) =    -16.60095  eV     1   --> A              
     e(  5 -  5) =     -7.58868  eV     1   --> A              
     e(  6 -  6) =     -7.58534  eV     1   --> A              
     e(  7 -  7) =     -7.47011  eV     1   --> A              
     e(  8 -  8) =     -7.41748  eV     1   --> A              
     e(  9 -  9) =     -6.51047  eV     1   --> A              
     e( 10 - 10) =     -6.45472  eV     1   --> A              
     e( 11 - 11) =     -6.42367  eV     1   --> A              
     e( 12 - 12) =     -6.36489  eV     1   --> A              
     e( 13 - 13) =     -2.31124  eV     1   --> A              
     e( 14 - 14) =     -2.28952  eV     1   --> A              
     e( 15 - 15) =     -2.02625  eV     1   --> A              
     e( 16 - 16) =     -2.02440  eV     1   --> A              
     e( 17 - 17) =      4.80208  eV     1   --> A              
     e( 18 - 18) =      5.30592  eV     1   --> A              
     e( 19 - 19) =      5.43870  eV     1   --> A              
     e( 20 - 20) =      5.53934  eV     1   --> A              

 **************************************************************************

 **************************************************************************

                    xk=(   0.35000,   0.40000,   0.45000  )

     Band symmetry, C_1 (1)     point group:

     e(  1 -  1) =    -16.72376  eV     1   --> A              
     e(  2 -  2) =    -16.69555  eV     1   --> A              
     e(  3 -  3) =    -16.62381  eV     1   --> A              
     e(  4 -  4) =    -16.61056  eV     1   --> A              
     e(  5 -  5) =     -7.59196  eV     1   --> A              
     e(  6 -  6) =     -7.58912  eV     1   --> A              
     e(  7 -  7) =     -7.47871  eV     1   --> A              
     e(  8 -  8) =     -7.45038  eV     1   --> A              
     e(  9 -  9) =     -6.48444  eV     1   --> A              
     e( 10 - 10) =     -6.45326  eV     1   --> A              
     e( 11 - 11) =     -6.40342  eV     1   --> A              
     e( 12 - 12) =     -6.37079  eV     1   --> A              
     e( 13 - 13) =     -2.29149  eV     1   --> A              
     e( 14 - 14) =     -2.27951  eV     1   --> A              
     e( 15 - 15) =     -2.03162  eV     1   --> A              
     e( 16 - 16) =     -2.03106  eV     1   --> A              
     e( 17 - 17) =      4.92490  eV     1   --> A              
     e( 18 - 18) =      5.20619  eV     1   --> A              
     e( 19 - 19) =      5.40786  eV     1   --> A              
     e( 20 - 20) =      5.48401  eV     1   --> A              

 **************************************************************************

 **************************************************************************

                    xk=(   0.35000,   0.40000,  -0.50000  )

     Band symmetry, C_1 (1)     point group:

     e(  1 -  2) =    -16.70792  eV     2   -->   2 A              
     e(  3 -  4) =    -16.61873  eV     2   -->   2 A              
     e(  5 -  6) =     -7.59160  eV     2   -->   2 A              
     e(  7 -  8) =     -7.47172  eV     2   -->   2 A              
     e(  9 - 10) =     -6.46484  eV     2   -->   2 A              
     e( 11 - 12) =     -6.38403  eV     2   -->   2 A              
     e( 13 - 14) =     -2.28013  eV     2   -->   2 A              
     e( 15 - 16) =     -2.03365  eV     2   -->   2 A              
     e( 17 - 18) =      5.06217  eV     2   -->   2 A              
     e( 19 - 20) =      5.43843  eV     2   -->   2 A              

 **************************************************************************

 **************************************************************************

                    xk=(   0.35000,   0.45000,   0.45000  )

     Band symmetry, C_1 (1)     point group:

     e(  1 -  1) =    -16.71021  eV     1   --> A              
     e(  2 -  2) =    -16.69408  eV     1   --> A              
     e(  3 -  3) =    -16.62830  eV     1   --> A              
     e(  4 -  4) =    -16.61988  eV     1   --> A              
     e(  5 -  5) =     -7.59430  eV     1   --> A              
     e(  6 -  6) =     -7.59180  eV     1   --> A              
     e(  7 -  7) =     -7.49489  eV     1   --> A              
     e(  8 -  8) =     -7.47921  eV     1   --> A              
     e(  9 -  9) =     -6.45996  eV     1   --> A              
     e( 10 - 10) =     -6.43979  eV     1   --> A              
     e( 11 - 11) =     -6.39479  eV     1   --> A              
     e( 12 - 12) =     -6.37393  eV     1   --> A              
     e( 13 - 13) =     -2.27155  eV     1   --> A              
     e( 14 - 14) =     -2.26482  eV     1   --> A              
     e( 15 - 15) =     -2.03914  eV     1   --> A              
     e( 16 - 16) =     -2.03854  eV     1   --> A              
     e( 17 - 17) =      5.02370  eV     1   --> A              
     e( 18 - 18) =      5.23599  eV     1   --> A              
     e( 19 - 19) =      5.29407  eV     1   --> A              
     e( 20 - 20) =      5.39991  eV     1   --> A              

 **************************************************************************

 **************************************************************************

                    xk=(   0.35000,   0.45000,  -0.50000  )

     Band symmetry, C_1 (1)     point group:

     e(  1 -  2) =    -16.69941  eV     2   -->   2 A              
     e(  3 -  4) =    -16.62662  eV     2   -->   2 A              
     e(  5 -  6) =     -7.59358  eV     2   -->   2 A              
     e(  7 -  8) =     -7.49502  eV     2   -->   2 A              
     e(  9 - 10) =     -6.44398  eV     2   -->   2 A              
     e( 11 - 12) =     -6.38293  eV     2   -->   2 A              
     e( 13 - 14) =     -2.26185  eV     2   -->   2 A              
     e( 15 - 16) =     -2.04181  eV     2   -->   2 A              
     e( 17 - 18) =      5.13684  eV     2   -->   2 A              
     e( 19 - 20) =      5.32786  eV     2   -->   2 A              

 **************************************************************************

 **************************************************************************

                    xk=(   0.35000,  -0.50000,  -0.50000  )

     zone border point and non-symmorphic group 
     symmetry decomposition not available

 **************************************************************************

 **************************************************************************

                    xk=(   0.40000,   0.40000,   0.40000  )

     point group C_3 (3)    
     there are  3 classes
     the character table:

       E     C3    C3^2 
A      1.00  1.00  1.00
E      1.00 -0.50 -0.50
E*     1.00 -0.50 -0.50
     imaginary part
A      0.00  0.00  0.00
E      0.00  0.87 -0.87
E*     0.00 -0.87  0.87

     the symmetry operations in each class and the name of the first element:

     E        1
                                                                 
     C3       3
                                                                 
     C3^2     2
                                                                 

     Band symmetry, C_3 (3)     point group:

     e(  1 -  1) =    -16.72573  eV     1   --> A              
     e(  2 -  2) =    -16.68557  eV     1   --> E              
     e(  3 -  3) =    -16.63061  eV     1   --> A              
     e(  4 -  4) =    -16.61091  eV     1   --> E*             
     e(  5 -  5) =     -7.59539  eV     1   --> E*             
     e(  6 -  6) =     -7.59366  eV     1   --> A              
     e(  7 -  7) =     -7.49656  eV     1   --> E              
     e(  8 -  8) =     -7.45741  eV     1   --> A              
     e(  9 -  9) =     -6.47968  eV     1   --> E*             
     e( 10 - 10) =     -6.42301  eV     1   --> E              
     e( 11 - 11) =     -6.41916  eV     1   --> E*             
     e( 12 - 12) =     -6.36058  eV     1   --> E              
     e( 13 - 13) =     -2.28225  eV     1   --> A              
     e( 14 - 14) =     -2.26504  eV     1   --> E*             
     e( 15 - 15) =     -2.03643  eV     1   --> A              
     e( 16 - 16) =     -2.03569  eV     1   --> E              
     e( 17 - 17) =      4.88414  eV     1   --> A              
     e( 18 - 18) =      5.29089  eV     1   --> E*             
     e( 19 - 19) =      5.39848  eV     1   --> E              
     e( 20 - 20) =      5.40505  eV     1   --> A              

 **************************************************************************

 **************************************************************************

                    xk=(   0.40000,   0.40000,   0.45000  )

     point group C_1 (1)    
     there are  1 classes
     the character table:

       E    
A      1.00

     the symmetry operations in each class and the name of the first element:

     E        1
                                                                 

     Band symmetry, C_1 (1)     point group:

     e(  1 -  1) =    -16.71070  eV     1   --> A              
     e(  2 -  2) =    -16.68807  eV     1   --> A              
     e(  3 -  3) =    -16.63243  eV     1   --> A              
     e(  4 -  4) =    -16.62036  eV     1   --> A              
     e(  5 -  5) =     -7.59915  eV     1   --> A              
     e(  6 -  6) =     -7.59670  eV     1   --> A              
     e(  7 -  7) =     -7.50980  eV     1   --> A              
     e(  8 -  8) =     -7.48819  eV     1   --> A              
     e(  9 -  9) =     -6.45450  eV     1   --> A              
     e( 10 - 10) =     -6.42451  eV     1   --> A              
     e( 11 - 11) =     -6.39504  eV     1   --> A              
     e( 12 - 12) =     -6.36414  eV     1   --> A              
     e( 13 - 13) =     -2.25934  eV     1   --> A              
     e( 14 - 14) =     -2.24954  eV     1   --> A              
     e( 15 - 15) =     -2.04567  eV     1   --> A              
     e( 16 - 16) =     -2.04437  eV     1   --> A              
     e( 17 - 17) =      4.98166  eV     1   --> A              
     e( 18 - 18) =      5.21307  eV     1   --> A              
     e( 19 - 19) =      5.34376  eV     1   --> A              
     e( 20 - 20) =      5.37102  eV     1   --> A              

 **************************************************************************

 **************************************************************************

                    xk=(   0.40000,   0.40000,  -0.50000  )

     Band symmetry, C_1 (1)     point group:

     e(  1 -  2) =    -16.69735  eV     2   -->   2 A              
     e(  3 -  4) =    -16.62822  eV     2   -->   2 A              
     e(  5 -  6) =     -7.59882  eV     2   -->   2 A              
     e(  7 -  8) =     -7.50675  eV     2   -->   2 A              
     e(  9 - 10) =     -6.43589  eV     2   -->   2 A              
     e( 11 - 12) =     -6.37571  eV     2   -->   2 A              
     e( 13 - 14) =     -2.24732  eV     2   -->   2 A              
     e( 15 - 16) =     -2.04862  eV     2   -->   2 A              
     e( 17 - 18) =      5.09358  eV     2   -->   2 A              
     e( 19 - 20) =      5.34929  eV     2   -->   2 A              

 **************************************************************************

 **************************************************************************

                    xk=(   0.40000,   0.45000,   0.45000  )

     Band symmetry, C_1 (1)     point group:

     e(  1 -  1) =    -16.69834  eV     1   --> A              
     e(  2 -  2) =    -16.68474  eV     1   --> A              
     e(  3 -  3) =    -16.63764  eV     1   --> A              
     e(  4 -  4) =    -16.62950  eV     1   --> A              
     e(  5 -  5) =     -7.60174  eV     1   --> A              
     e(  6 -  6) =     -7.59930  eV     1   --> A              
     e(  7 -  7) =     -7.52869  eV     1   --> A              
     e(  8 -  8) =     -7.51628  eV     1   --> A              
     e(  9 -  9) =     -6.43115  eV     1   --> A              
     e( 10 - 10) =     -6.41088  eV     1   --> A              
     e( 11 - 11) =     -6.38557  eV     1   --> A              
     e( 12 - 12) =     -6.36486  eV     1   --> A              
     e( 13 - 13) =     -2.23405  eV     1   --> A              
     e( 14 - 14) =     -2.22822  eV     1   --> A              
     e( 15 - 15) =     -2.05788  eV     1   --> A              
     e( 16 - 16) =     -2.05645  eV     1   --> A              
     e( 17 - 17) =      5.05286  eV     1   --> A              
     e( 18 - 18) =      5.21822  eV     1   --> A              
     e( 19 - 19) =      5.25695  eV     1   --> A              
     e( 20 - 20) =      5.30810  eV     1   --> A              

 **************************************************************************

 **************************************************************************

                    xk=(   0.40000,   0.45000,  -0.50000  )

     Band symmetry, C_1 (1)     point group:

     e(  1 -  2) =    -16.68859  eV     2   -->   2 A              
     e(  3 -  4) =    -16.63628  eV     2   -->   2 A              
     e(  5 -  6) =     -7.60080  eV     2   -->   2 A              
     e(  7 -  8) =     -7.53104  eV     2   -->   2 A              
     e(  9 - 10) =     -6.41566  eV     2   -->   2 A              
     e( 11 - 12) =     -6.37282  eV     2   -->   2 A              
     e( 13 - 14) =     -2.22212  eV     2   -->   2 A              
     e( 15 - 16) =     -2.06232  eV     2   -->   2 A              
     e( 17 - 18) =      5.13796  eV     2   -->   2 A              
     e( 19 - 20) =      5.26743  eV     2   -->   2 A              

 **************************************************************************

 **************************************************************************

                    xk=(   0.40000,  -0.50000,  -0.50000  )

     zone border point and non-symmorphic group 
     symmetry decomposition not available

 **************************************************************************

 **************************************************************************

                    xk=(   0.45000,   0.45000,   0.45000  )

     point group C_3 (3)    
     there are  3 classes
     the character table:

       E     C3    C3^2 
A      1.00  1.00  1.00
E      1.00 -0.50 -0.50
E*     1.00 -0.50 -0.50
     imaginary part
A      0.00  0.00  0.00
E      0.00  0.87 -0.87
E*     0.00 -0.87  0.87

     the symmetry operations in each class and the name of the first element:

     E        1
                                                                 
     C3       3
                                                                 
     C3^2     2
                                                                 

     Band symmetry, C_3 (3)     point group:

     e(  1 -  1) =    -16.68702  eV     1   --> A              
     e(  2 -  2) =    -16.67789  eV     1   --> E              
     e(  3 -  3) =    -16.64507  eV     1   --> A              
     e(  4 -  4) =    -16.63879  eV     1   --> E*             
     e(  5 -  5) =     -7.60327  eV     1   --> E*             
     e(  6 -  6) =     -7.60077  eV     1   --> A              
     e(  7 -  7) =     -7.55160  eV     1   --> E              
     e(  8 -  8) =     -7.54382  eV     1   --> A              
     e(  9 -  9) =     -6.40927  eV     1   --> E*             
     e( 10 - 10) =     -6.39323  eV     1   --> E*             
     e( 11 - 11) =     -6.37953  eV     1   --> E              
     e( 12 - 12) =     -6.36326  eV     1   --> E              
     e( 13 - 13) =     -2.20260  eV     1   --> A              
     e( 14 - 14) =     -2.19872  eV     1   --> E*             
     e( 15 - 15) =     -2.07639  eV     1   --> A              
     e( 16 - 16) =     -2.07479  eV     1   --> E              
     e( 17 - 17) =      5.09503  eV     1   --> A              
     e( 18 - 18) =      5.20451  eV     1   --> E*             
     e( 19 - 19) =      5.22908  eV     1   --> E              
     e( 20 - 20) =      5.23161  eV     1   --> A              

 **************************************************************************

 **************************************************************************

                    xk=(   0.45000,   0.45000,  -0.50000  )

     point group C_1 (1)    
     there are  1 classes
     the character table:

       E    
A      1.00

     the symmetry operations in each class and the name of the first element:

     E        1
                                                                 

     Band symmetry, C_1 (1)     point group:

     e(  1 -  2) =    -16.67857  eV     2   -->   2 A              
     e(  3 -  4) =    -16.64556  eV     2   -->   2 A              
     e(  5 -  6) =     -7.60125  eV     2   -->   2 A              
     e(  7 -  8) =     -7.55755  eV     2   -->   2 A              
     e(  9 - 10) =     -6.39544  eV     2   -->   2 A              
     e( 11 - 12) =     -6.36921  eV     2   -->   2 A              
     e( 13 - 14) =     -2.18741  eV     2   -->   2 A              
     e( 15 - 16) =     -2.08468  eV     2   -->   2 A              
     e( 17 - 18) =      5.15064  eV     2   -->   2 A              
     e( 19 - 20) =      5.21637  eV     2   -->   2 A              

 **************************************************************************

 **************************************************************************

                    xk=(   0.45000,  -0.50000,  -0.50000  )

     zone border point and non-symmorphic group 
     symmetry decomposition not available

 **************************************************************************

 **************************************************************************

                    xk=(  -0.50000,  -0.50000,  -0.50000  )

     zone border point and non-symmorphic group 
     symmetry decomposition not available

 **************************************************************************

     BANDS        :     25.65s CPU     28.98s WALL


   This run was terminated on:   3:16:43  14Dec2022            

=------------------------------------------------------------------------------=
   JOB DONE.
=------------------------------------------------------------------------------=
