
     Program BANDS v.7.1 starts on 14Dec2022 at  4: 2: 5 

     This program is part of the open-source Quantum ESPRESSO suite
     for quantum simulation of materials; please cite
         "P. Giannozzi et al., J. Phys.:Condens. Matter 21 395502 (2009);
         "P. Giannozzi et al., J. Phys.:Condens. Matter 29 465901 (2017);
         "P. Giannozzi et al., J. Chem. Phys. 152 154105 (2020);
          URL http://www.quantum-espresso.org", 
     in publications or presentations arising from this work. More details at
     http://www.quantum-espresso.org/quote

     Parallel version (MPI), running on    14 processors

     MPI processes distributed on     1 nodes
     R & G space division:  proc/nbgrp/npool/nimage =      14
     24206 MiB available memory on the printing compute node when the environment starts


     Reading xml data from directory:

     ./out/AC_Ph_1.save/

     IMPORTANT: XC functional enforced from input :
     Exchange-correlation= PBE
                           (   1   4   3   4   0   0   0)
     Any further DFT definition will be discarded
     Please, verify this is what you really want


     Parallelization info
     --------------------
     sticks:   dense  smooth     PW     G-vecs:    dense   smooth      PW
     Min         262     130     36                11930     4206     622
     Max         263     131     37                11933     4207     625
     Sum        3673    1829    509               167037    58893    8733

     Using Slab Decomposition


     Check: negative core charge=   -0.000001
     Reading collected, re-writing distributed wavefunctions
     high-symmetry point:  0.0000 0.5000 0.0000   x coordinate   0.0000
     high-symmetry point:  0.0000 0.0000 0.0000   x coordinate   0.5000
     high-symmetry point: -0.5000 0.0000-0.5000   x coordinate   1.2071
     high-symmetry point: -0.3750 0.2500-0.3750   x coordinate   1.5133
     high-symmetry point:  0.0000 0.0000 0.0000   x coordinate   2.0996

     Plottable bands (eV) written to file AC_bands.dat.gnu
     Bands written to file AC_bands.dat

 **************************************************************************

                    xk=(   0.00000,   0.50000,   0.00000  )

     zone border point and non-symmorphic group 
     symmetry decomposition not available

 **************************************************************************

 **************************************************************************

                    xk=(   0.00000,   0.47500,   0.00000  )

     point group C_2  (2)   
     there are  2 classes
     the character table:

       E     C2   
A      1.00  1.00
B      1.00 -1.00

     the symmetry operations in each class and the name of the first element:

     E        1
                                                                 
     C2       2
                                                                 

     Band symmetry, C_2  (2)    point group:

     e(  1 -  1) =    -16.86290  eV     1   --> A              
     e(  2 -  2) =    -16.81864  eV     1   --> B              
     e(  3 -  3) =    -16.49571  eV     1   --> A              
     e(  4 -  4) =    -16.49326  eV     1   --> B              
     e(  5 -  5) =     -7.48274  eV     1   --> B              
     e(  6 -  6) =     -7.47837  eV     1   --> A              
     e(  7 -  7) =     -7.08341  eV     1   --> B              
     e(  8 -  8) =     -7.02361  eV     1   --> A              
     e(  9 -  9) =     -6.71709  eV     1   --> B              
     e( 10 - 10) =     -6.71106  eV     1   --> A              
     e( 11 - 11) =     -6.59058  eV     1   --> A              
     e( 12 - 12) =     -6.56477  eV     1   --> B              
     e( 13 - 13) =     -2.44918  eV     1   --> B              
     e( 14 - 14) =     -2.44853  eV     1   --> A              
     e( 15 - 15) =     -2.01138  eV     1   --> B              
     e( 16 - 16) =     -1.98988  eV     1   --> A              
     e( 17 - 17) =      4.02684  eV     1   --> A              
     e( 18 - 18) =      4.27863  eV     1   --> B              
     e( 19 - 19) =      6.27659  eV     1   --> B              
     e( 20 - 20) =      6.28212  eV     1   --> A              

 **************************************************************************

 **************************************************************************

                    xk=(   0.00000,   0.45000,   0.00000  )

     Band symmetry, C_2  (2)    point group:

     e(  1 -  1) =    -16.88467  eV     1   --> A              
     e(  2 -  2) =    -16.79640  eV     1   --> B              
     e(  3 -  3) =    -16.49703  eV     1   --> A              
     e(  4 -  4) =    -16.49218  eV     1   --> B              
     e(  5 -  5) =     -7.48646  eV     1   --> B              
     e(  6 -  6) =     -7.47780  eV     1   --> A              
     e(  7 -  7) =     -7.11447  eV     1   --> B              
     e(  8 -  8) =     -6.99533  eV     1   --> A              
     e(  9 -  9) =     -6.71628  eV     1   --> B              
     e( 10 - 10) =     -6.70431  eV     1   --> A              
     e( 11 - 11) =     -6.60330  eV     1   --> A              
     e( 12 - 12) =     -6.55200  eV     1   --> B              
     e( 13 - 13) =     -2.44629  eV     1   --> B              
     e( 14 - 14) =     -2.44485  eV     1   --> A              
     e( 15 - 15) =     -2.02133  eV     1   --> B              
     e( 16 - 16) =     -1.97831  eV     1   --> A              
     e( 17 - 17) =      3.89576  eV     1   --> A              
     e( 18 - 18) =      4.39633  eV     1   --> B              
     e( 19 - 19) =      6.24231  eV     1   --> B              
     e( 20 - 20) =      6.25145  eV     1   --> A              

 **************************************************************************

 **************************************************************************

                    xk=(   0.00000,   0.42500,   0.00000  )

     Band symmetry, C_2  (2)    point group:

     e(  1 -  1) =    -16.90602  eV     1   --> A              
     e(  2 -  2) =    -16.77426  eV     1   --> B              
     e(  3 -  3) =    -16.49842  eV     1   --> A              
     e(  4 -  4) =    -16.49121  eV     1   --> B              
     e(  5 -  5) =     -7.49110  eV     1   --> B              
     e(  6 -  6) =     -7.47829  eV     1   --> A              
     e(  7 -  7) =     -7.14592  eV     1   --> B              
     e(  8 -  8) =     -6.96843  eV     1   --> A              
     e(  9 -  9) =     -6.71301  eV     1   --> B              
     e( 10 - 10) =     -6.69534  eV     1   --> A              
     e( 11 - 11) =     -6.61560  eV     1   --> A              
     e( 12 - 12) =     -6.53952  eV     1   --> B              
     e( 13 - 13) =     -2.44141  eV     1   --> B              
     e( 14 - 14) =     -2.43888  eV     1   --> A              
     e( 15 - 15) =     -2.03083  eV     1   --> B              
     e( 16 - 16) =     -1.96624  eV     1   --> A              
     e( 17 - 17) =      3.76310  eV     1   --> A              
     e( 18 - 18) =      4.50642  eV     1   --> B              
     e( 19 - 19) =      6.19102  eV     1   --> B              
     e( 20 - 20) =      6.20060  eV     1   --> A              

 **************************************************************************

 **************************************************************************

                    xk=(   0.00000,   0.40000,   0.00000  )

     Band symmetry, C_2  (2)    point group:

     e(  1 -  1) =    -16.92684  eV     1   --> A              
     e(  2 -  2) =    -16.75234  eV     1   --> B              
     e(  3 -  3) =    -16.49984  eV     1   --> A              
     e(  4 -  4) =    -16.49037  eV     1   --> B              
     e(  5 -  5) =     -7.49649  eV     1   --> B              
     e(  6 -  6) =     -7.47977  eV     1   --> A              
     e(  7 -  7) =     -7.17750  eV     1   --> B              
     e(  8 -  8) =     -6.94302  eV     1   --> A              
     e(  9 -  9) =     -6.70742  eV     1   --> B              
     e( 10 - 10) =     -6.68467  eV     1   --> A              
     e( 11 - 11) =     -6.62708  eV     1   --> A              
     e( 12 - 12) =     -6.52750  eV     1   --> B              
     e( 13 - 13) =     -2.43467  eV     1   --> B              
     e( 14 - 14) =     -2.43066  eV     1   --> A              
     e( 15 - 15) =     -2.03993  eV     1   --> B              
     e( 16 - 16) =     -1.95370  eV     1   --> A              
     e( 17 - 17) =      3.63014  eV     1   --> A              
     e( 18 - 18) =      4.60731  eV     1   --> B              
     e( 19 - 19) =      6.12665  eV     1   --> B              
     e( 20 - 20) =      6.13308  eV     1   --> A              

 **************************************************************************

 **************************************************************************

                    xk=(   0.00000,   0.37500,   0.00000  )

     Band symmetry, C_2  (2)    point group:

     e(  1 -  1) =    -16.94702  eV     1   --> A              
     e(  2 -  2) =    -16.73078  eV     1   --> B              
     e(  3 -  3) =    -16.50128  eV     1   --> A              
     e(  4 -  4) =    -16.48967  eV     1   --> B              
     e(  5 -  5) =     -7.50249  eV     1   --> B              
     e(  6 -  6) =     -7.48216  eV     1   --> A              
     e(  7 -  7) =     -7.20895  eV     1   --> B              
     e(  8 -  8) =     -6.91918  eV     1   --> A              
     e(  9 -  9) =     -6.69973  eV     1   --> B              
     e( 10 - 10) =     -6.67371  eV     1   --> A              
     e( 11 - 11) =     -6.63665  eV     1   --> A              
     e( 12 - 12) =     -6.51611  eV     1   --> B              
     e( 13 - 13) =     -2.42623  eV     1   --> B              
     e( 14 - 14) =     -2.42025  eV     1   --> A              
     e( 15 - 15) =     -2.04872  eV     1   --> B              
     e( 16 - 16) =     -1.94080  eV     1   --> A              
     e( 17 - 17) =      3.49807  eV     1   --> A              
     e( 18 - 18) =      4.69751  eV     1   --> B              
     e( 19 - 20) =      6.05295  eV     2   --> A              
     e( 19 - 20) =      6.05295  eV     2   --> B              

 **************************************************************************

 **************************************************************************

                    xk=(   0.00000,   0.35000,   0.00000  )

     Band symmetry, C_2  (2)    point group:

     e(  1 -  1) =    -16.96644  eV     1   --> A              
     e(  2 -  2) =    -16.70970  eV     1   --> B              
     e(  3 -  3) =    -16.50273  eV     1   --> A              
     e(  4 -  4) =    -16.48913  eV     1   --> B              
     e(  5 -  5) =     -7.50889  eV     1   --> B              
     e(  6 -  6) =     -7.48531  eV     1   --> A              
     e(  7 -  7) =     -7.23999  eV     1   --> B              
     e(  8 -  8) =     -6.89688  eV     1   --> A              
     e(  9 -  9) =     -6.69013  eV     1   --> B              
     e( 10 - 10) =     -6.66724  eV     1   --> A              
     e( 11 - 11) =     -6.63975  eV     1   --> A              
     e( 12 - 12) =     -6.50544  eV     1   --> B              
     e( 13 - 13) =     -2.41624  eV     1   --> B              
     e( 14 - 14) =     -2.40775  eV     1   --> A              
     e( 15 - 15) =     -2.05728  eV     1   --> B              
     e( 16 - 16) =     -1.92762  eV     1   --> A              
     e( 17 - 17) =      3.36804  eV     1   --> A              
     e( 18 - 18) =      4.77580  eV     1   --> B              
     e( 19 - 19) =      5.96430  eV     1   --> A              
     e( 20 - 20) =      5.97322  eV     1   --> B              

 **************************************************************************

 **************************************************************************

                    xk=(   0.00000,   0.32500,   0.00000  )

     Band symmetry, C_2  (2)    point group:

     e(  1 -  1) =    -16.98500  eV     1   --> A              
     e(  2 -  2) =    -16.68923  eV     1   --> B              
     e(  3 -  3) =    -16.50417  eV     1   --> A              
     e(  4 -  4) =    -16.48876  eV     1   --> B              
     e(  5 -  5) =     -7.51548  eV     1   --> B              
     e(  6 -  6) =     -7.48907  eV     1   --> A              
     e(  7 -  7) =     -7.27037  eV     1   --> B              
     e(  8 -  8) =     -6.87611  eV     1   --> A              
     e(  9 -  9) =     -6.67886  eV     1   --> B              
     e( 10 - 10) =     -6.67094  eV     1   --> A              
     e( 11 - 11) =     -6.63108  eV     1   --> A              
     e( 12 - 12) =     -6.49567  eV     1   --> B              
     e( 13 - 13) =     -2.40484  eV     1   --> B              
     e( 14 - 14) =     -2.39332  eV     1   --> A              
     e( 15 - 15) =     -2.06571  eV     1   --> B              
     e( 16 - 16) =     -1.91429  eV     1   --> A              
     e( 17 - 17) =      3.24111  eV     1   --> A              
     e( 18 - 18) =      4.84141  eV     1   --> B              
     e( 19 - 19) =      5.87068  eV     1   --> A              
     e( 20 - 20) =      5.89014  eV     1   --> B              

 **************************************************************************

 **************************************************************************

                    xk=(   0.00000,   0.30000,   0.00000  )

     Band symmetry, C_2  (2)    point group:

     e(  1 -  1) =    -17.00260  eV     1   --> A              
     e(  2 -  2) =    -16.66949  eV     1   --> B              
     e(  3 -  3) =    -16.50558  eV     1   --> A              
     e(  4 -  4) =    -16.48859  eV     1   --> B              
     e(  5 -  5) =     -7.52208  eV     1   --> B              
     e(  6 -  6) =     -7.49332  eV     1   --> A              
     e(  7 -  7) =     -7.29989  eV     1   --> B              
     e(  8 -  8) =     -6.85681  eV     1   --> A              
     e(  9 -  9) =     -6.67912  eV     1   --> A              
     e( 10 - 10) =     -6.66621  eV     1   --> B              
     e( 11 - 11) =     -6.61677  eV     1   --> A              
     e( 12 - 12) =     -6.48694  eV     1   --> B              
     e( 13 - 13) =     -2.39226  eV     1   --> B              
     e( 14 - 14) =     -2.37721  eV     1   --> A              
     e( 15 - 15) =     -2.07414  eV     1   --> B              
     e( 16 - 16) =     -1.90098  eV     1   --> A              
     e( 17 - 17) =      3.11831  eV     1   --> A              
     e( 18 - 18) =      4.89417  eV     1   --> B              
     e( 19 - 19) =      5.77516  eV     1   --> A              
     e( 20 - 20) =      5.80587  eV     1   --> B              

 **************************************************************************

 **************************************************************************

                    xk=(   0.00000,   0.27500,   0.00000  )

     Band symmetry, C_2  (2)    point group:

     e(  1 -  1) =    -17.01914  eV     1   --> A              
     e(  2 -  2) =    -16.65057  eV     1   --> B              
     e(  3 -  3) =    -16.50696  eV     1   --> A              
     e(  4 -  4) =    -16.48863  eV     1   --> B              
     e(  5 -  5) =     -7.52846  eV     1   --> B              
     e(  6 -  6) =     -7.49788  eV     1   --> A              
     e(  7 -  7) =     -7.32833  eV     1   --> B              
     e(  8 -  8) =     -6.83894  eV     1   --> A              
     e(  9 -  9) =     -6.68793  eV     1   --> A              
     e( 10 - 10) =     -6.65240  eV     1   --> B              
     e( 11 - 11) =     -6.60101  eV     1   --> A              
     e( 12 - 12) =     -6.47938  eV     1   --> B              
     e( 13 - 13) =     -2.37863  eV     1   --> B              
     e( 14 - 14) =     -2.35971  eV     1   --> A              
     e( 15 - 15) =     -2.08266  eV     1   --> B              
     e( 16 - 16) =     -1.88786  eV     1   --> A              
     e( 17 - 17) =      3.00066  eV     1   --> A              
     e( 18 - 18) =      4.93462  eV     1   --> B              
     e( 19 - 19) =      5.68031  eV     1   --> A              
     e( 20 - 20) =      5.72213  eV     1   --> B              

 **************************************************************************

 **************************************************************************

                    xk=(   0.00000,   0.25000,   0.00000  )

     Band symmetry, C_2  (2)    point group:

     e(  1 -  1) =    -17.03453  eV     1   --> A              
     e(  2 -  2) =    -16.63258  eV     1   --> B              
     e(  3 -  3) =    -16.50827  eV     1   --> A              
     e(  4 -  4) =    -16.48892  eV     1   --> B              
     e(  5 -  5) =     -7.53440  eV     1   --> B              
     e(  6 -  6) =     -7.50260  eV     1   --> A              
     e(  7 -  7) =     -7.35549  eV     1   --> B              
     e(  8 -  8) =     -6.82246  eV     1   --> A              
     e(  9 -  9) =     -6.69646  eV     1   --> A              
     e( 10 - 10) =     -6.63771  eV     1   --> B              
     e( 11 - 11) =     -6.58512  eV     1   --> A              
     e( 12 - 12) =     -6.47309  eV     1   --> B              
     e( 13 - 13) =     -2.36414  eV     1   --> B              
     e( 14 - 14) =     -2.34115  eV     1   --> A              
     e( 15 - 15) =     -2.09138  eV     1   --> B              
     e( 16 - 16) =     -1.87510  eV     1   --> A              
     e( 17 - 17) =      2.88910  eV     1   --> A              
     e( 18 - 18) =      4.96401  eV     1   --> B              
     e( 19 - 19) =      5.58821  eV     1   --> A              
     e( 20 - 20) =      5.64028  eV     1   --> B              

 **************************************************************************

 **************************************************************************

                    xk=(   0.00000,   0.22500,   0.00000  )

     Band symmetry, C_2  (2)    point group:

     e(  1 -  1) =    -17.04871  eV     1   --> A              
     e(  2 -  2) =    -16.61561  eV     1   --> B              
     e(  3 -  3) =    -16.50951  eV     1   --> A              
     e(  4 -  4) =    -16.48948  eV     1   --> B              
     e(  5 -  5) =     -7.53973  eV     1   --> B              
     e(  6 -  6) =     -7.50734  eV     1   --> A              
     e(  7 -  7) =     -7.38125  eV     1   --> B              
     e(  8 -  8) =     -6.80736  eV     1   --> A              
     e(  9 -  9) =     -6.70442  eV     1   --> A              
     e( 10 - 10) =     -6.62242  eV     1   --> B              
     e( 11 - 11) =     -6.56973  eV     1   --> A              
     e( 12 - 12) =     -6.46820  eV     1   --> B              
     e( 13 - 13) =     -2.34897  eV     1   --> B              
     e( 14 - 14) =     -2.32198  eV     1   --> A              
     e( 15 - 15) =     -2.10042  eV     1   --> B              
     e( 16 - 16) =     -1.86292  eV     1   --> A              
     e( 17 - 17) =      2.78459  eV     1   --> A              
     e( 18 - 18) =      4.98415  eV     1   --> B              
     e( 19 - 19) =      5.50058  eV     1   --> A              
     e( 20 - 20) =      5.56140  eV     1   --> B              

 **************************************************************************

 **************************************************************************

                    xk=(   0.00000,   0.20000,   0.00000  )

     Band symmetry, C_2  (2)    point group:

     e(  1 -  1) =    -17.06160  eV     1   --> A              
     e(  2 -  2) =    -16.59974  eV     1   --> B              
     e(  3 -  3) =    -16.51066  eV     1   --> A              
     e(  4 -  4) =    -16.49035  eV     1   --> B              
     e(  5 -  5) =     -7.54423  eV     1   --> B              
     e(  6 -  6) =     -7.51196  eV     1   --> A              
     e(  7 -  7) =     -7.40544  eV     1   --> B              
     e(  8 -  8) =     -6.79366  eV     1   --> A              
     e(  9 -  9) =     -6.71167  eV     1   --> A              
     e( 10 - 10) =     -6.60675  eV     1   --> B              
     e( 11 - 11) =     -6.55521  eV     1   --> A              
     e( 12 - 12) =     -6.46479  eV     1   --> B              
     e( 13 - 13) =     -2.33327  eV     1   --> B              
     e( 14 - 14) =     -2.30264  eV     1   --> A              
     e( 15 - 15) =     -2.10986  eV     1   --> B              
     e( 16 - 16) =     -1.85150  eV     1   --> A              
     e( 17 - 17) =      2.68804  eV     1   --> A              
     e( 18 - 18) =      4.99720  eV     1   --> B              
     e( 19 - 19) =      5.41887  eV     1   --> A              
     e( 20 - 20) =      5.48637  eV     1   --> B              

 **************************************************************************

 **************************************************************************

                    xk=(   0.00000,   0.17500,   0.00000  )

     Band symmetry, C_2  (2)    point group:

     e(  1 -  1) =    -17.07312  eV     1   --> A              
     e(  2 -  2) =    -16.58501  eV     1   --> B              
     e(  3 -  3) =    -16.51171  eV     1   --> A              
     e(  4 -  4) =    -16.49157  eV     1   --> B              
     e(  5 -  5) =     -7.54774  eV     1   --> B              
     e(  6 -  6) =     -7.51632  eV     1   --> A              
     e(  7 -  7) =     -7.42793  eV     1   --> B              
     e(  8 -  8) =     -6.78136  eV     1   --> A              
     e(  9 -  9) =     -6.71814  eV     1   --> A              
     e( 10 - 10) =     -6.59094  eV     1   --> B              
     e( 11 - 11) =     -6.54186  eV     1   --> A              
     e( 12 - 12) =     -6.46291  eV     1   --> B              
     e( 13 - 13) =     -2.31721  eV     1   --> B              
     e( 14 - 14) =     -2.28366  eV     1   --> A              
     e( 15 - 15) =     -2.11976  eV     1   --> B              
     e( 16 - 16) =     -1.84100  eV     1   --> A              
     e( 17 - 17) =      2.60034  eV     1   --> A              
     e( 18 - 18) =      5.00547  eV     1   --> B              
     e( 19 - 19) =      5.34426  eV     1   --> A              
     e( 20 - 20) =      5.41593  eV     1   --> B              

 **************************************************************************

 **************************************************************************

                    xk=(   0.00000,   0.15000,   0.00000  )

     Band symmetry, C_2  (2)    point group:

     e(  1 -  1) =    -17.08322  eV     1   --> A              
     e(  2 -  2) =    -16.57149  eV     1   --> B              
     e(  3 -  3) =    -16.51265  eV     1   --> A              
     e(  4 -  4) =    -16.49320  eV     1   --> B              
     e(  5 -  5) =     -7.55010  eV     1   --> B              
     e(  6 -  6) =     -7.52035  eV     1   --> A              
     e(  7 -  7) =     -7.44864  eV     1   --> B              
     e(  8 -  8) =     -6.77055  eV     1   --> A              
     e(  9 -  9) =     -6.72380  eV     1   --> A              
     e( 10 - 10) =     -6.57526  eV     1   --> B              
     e( 11 - 11) =     -6.52993  eV     1   --> A              
     e( 12 - 12) =     -6.46266  eV     1   --> B              
     e( 13 - 13) =     -2.30094  eV     1   --> B              
     e( 14 - 14) =     -2.26560  eV     1   --> A              
     e( 15 - 15) =     -2.13022  eV     1   --> B              
     e( 16 - 16) =     -1.83162  eV     1   --> A              
     e( 17 - 17) =      2.52233  eV     1   --> A              
     e( 18 - 18) =      5.01116  eV     1   --> B              
     e( 19 - 19) =      5.27775  eV     1   --> A              
     e( 20 - 20) =      5.35063  eV     1   --> B              

 **************************************************************************

 **************************************************************************

                    xk=(   0.00000,   0.12500,   0.00000  )

     Band symmetry, C_2  (2)    point group:

     e(  1 -  1) =    -17.09186  eV     1   --> A              
     e(  2 -  2) =    -16.55919  eV     1   --> B              
     e(  3 -  3) =    -16.51347  eV     1   --> A              
     e(  4 -  4) =    -16.49530  eV     1   --> B              
     e(  5 -  5) =     -7.55116  eV     1   --> B              
     e(  6 -  6) =     -7.52392  eV     1   --> A              
     e(  7 -  7) =     -7.46749  eV     1   --> B              
     e(  8 -  8) =     -6.76128  eV     1   --> A              
     e(  9 -  9) =     -6.72862  eV     1   --> A              
     e( 10 - 10) =     -6.55994  eV     1   --> B              
     e( 11 - 11) =     -6.51960  eV     1   --> A              
     e( 12 - 12) =     -6.46406  eV     1   --> B              
     e( 13 - 13) =     -2.28461  eV     1   --> B              
     e( 14 - 14) =     -2.24904  eV     1   --> A              
     e( 15 - 15) =     -2.14130  eV     1   --> B              
     e( 16 - 16) =     -1.82349  eV     1   --> A              
     e( 17 - 17) =      2.45479  eV     1   --> A              
     e( 18 - 18) =      5.01630  eV     1   --> B              
     e( 19 - 19) =      5.22015  eV     1   --> A              
     e( 20 - 20) =      5.29095  eV     1   --> B              

 **************************************************************************

 **************************************************************************

                    xk=(   0.00000,   0.10000,   0.00000  )

     Band symmetry, C_2  (2)    point group:

     e(  1 -  1) =    -17.09899  eV     1   --> A              
     e(  2 -  2) =    -16.54810  eV     1   --> B              
     e(  3 -  3) =    -16.51414  eV     1   --> A              
     e(  4 -  4) =    -16.49792  eV     1   --> B              
     e(  5 -  5) =     -7.55077  eV     1   --> B              
     e(  6 -  6) =     -7.52695  eV     1   --> A              
     e(  7 -  7) =     -7.48443  eV     1   --> B              
     e(  8 -  8) =     -6.75359  eV     1   --> A              
     e(  9 -  9) =     -6.73258  eV     1   --> A              
     e( 10 - 10) =     -6.54516  eV     1   --> B              
     e( 11 - 11) =     -6.51100  eV     1   --> A              
     e( 12 - 12) =     -6.46712  eV     1   --> B              
     e( 13 - 13) =     -2.26837  eV     1   --> B              
     e( 14 - 14) =     -2.23453  eV     1   --> A              
     e( 15 - 15) =     -2.15301  eV     1   --> B              
     e( 16 - 16) =     -1.81672  eV     1   --> A              
     e( 17 - 17) =      2.39844  eV     1   --> A              
     e( 18 - 18) =      5.02264  eV     1   --> B              
     e( 19 - 19) =      5.17213  eV     1   --> A              
     e( 20 - 20) =      5.23723  eV     1   --> B              

 **************************************************************************

 **************************************************************************

                    xk=(   0.00000,   0.07500,   0.00000  )

     Band symmetry, C_2  (2)    point group:

     e(  1 -  1) =    -17.10457  eV     1   --> A              
     e(  2 -  2) =    -16.53823  eV     1   --> B              
     e(  3 -  3) =    -16.51468  eV     1   --> A              
     e(  4 -  4) =    -16.50116  eV     1   --> B              
     e(  5 -  5) =     -7.54883  eV     1   --> B              
     e(  6 -  6) =     -7.52939  eV     1   --> A              
     e(  7 -  7) =     -7.49941  eV     1   --> B              
     e(  8 -  8) =     -6.74755  eV     1   --> A              
     e(  9 -  9) =     -6.73568  eV     1   --> A              
     e( 10 - 10) =     -6.53114  eV     1   --> B              
     e( 11 - 11) =     -6.50420  eV     1   --> A              
     e( 12 - 12) =     -6.47182  eV     1   --> B              
     e( 13 - 13) =     -2.25232  eV     1   --> B              
     e( 14 - 14) =     -2.22260  eV     1   --> A              
     e( 15 - 15) =     -2.16538  eV     1   --> B              
     e( 16 - 16) =     -1.81139  eV     1   --> A              
     e( 17 - 17) =      2.35392  eV     1   --> A              
     e( 18 - 18) =      5.03162  eV     1   --> B              
     e( 19 - 19) =      5.13423  eV     1   --> A              
     e( 20 - 20) =      5.18970  eV     1   --> B              

 **************************************************************************

 **************************************************************************

                    xk=(   0.00000,   0.05000,   0.00000  )

     Band symmetry, C_2  (2)    point group:

     e(  1 -  1) =    -17.10858  eV     1   --> A              
     e(  2 -  2) =    -16.52953  eV     1   --> B              
     e(  3 -  3) =    -16.51507  eV     1   --> A              
     e(  4 -  4) =    -16.50509  eV     1   --> B              
     e(  5 -  5) =     -7.54521  eV     1   --> B              
     e(  6 -  6) =     -7.53116  eV     1   --> A              
     e(  7 -  7) =     -7.51243  eV     1   --> B              
     e(  8 -  8) =     -6.74320  eV     1   --> A              
     e(  9 -  9) =     -6.73790  eV     1   --> A              
     e( 10 - 10) =     -6.51807  eV     1   --> B              
     e( 11 - 11) =     -6.49931  eV     1   --> A              
     e( 12 - 12) =     -6.47814  eV     1   --> B              
     e( 13 - 13) =     -2.23658  eV     1   --> B              
     e( 14 - 14) =     -2.21373  eV     1   --> A              
     e( 15 - 15) =     -2.17842  eV     1   --> B              
     e( 16 - 16) =     -1.80757  eV     1   --> A              
     e( 17 - 17) =      2.32173  eV     1   --> A              
     e( 18 - 18) =      5.04441  eV     1   --> B              
     e( 19 - 19) =      5.10687  eV     1   --> A              
     e( 20 - 20) =      5.14848  eV     1   --> B              

 **************************************************************************

 **************************************************************************

                    xk=(   0.00000,   0.02500,   0.00000  )

     Band symmetry, C_2  (2)    point group:

     e(  1 -  1) =    -17.11099  eV     1   --> A              
     e(  2 -  2) =    -16.52193  eV     1   --> B              
     e(  3 -  3) =    -16.51531  eV     1   --> A              
     e(  4 -  4) =    -16.50980  eV     1   --> B              
     e(  5 -  5) =     -7.53982  eV     1   --> B              
     e(  6 -  6) =     -7.53223  eV     1   --> A              
     e(  7 -  7) =     -7.52347  eV     1   --> B              
     e(  8 -  8) =     -6.74056  eV     1   --> A              
     e(  9 -  9) =     -6.73924  eV     1   --> A              
     e( 10 - 10) =     -6.50609  eV     1   --> B              
     e( 11 - 11) =     -6.49636  eV     1   --> A              
     e( 12 - 12) =     -6.48602  eV     1   --> B              
     e( 13 - 13) =     -2.22124  eV     1   --> B              
     e( 14 - 14) =     -2.20824  eV     1   --> A              
     e( 15 - 15) =     -2.19209  eV     1   --> B              
     e( 16 - 16) =     -1.80525  eV     1   --> A              
     e( 17 - 17) =      2.30225  eV     1   --> A              
     e( 18 - 18) =      5.06192  eV     1   --> B              
     e( 19 - 19) =      5.09034  eV     1   --> A              
     e( 20 - 20) =      5.11357  eV     1   --> B              

 **************************************************************************

 **************************************************************************

                    xk=(   0.00000,   0.00000,   0.00000  )

     point group T    (23)  
     there are  4 classes
     the character table:

       E     3C2   4C3   4C3' 
A      1.00  1.00  1.00  1.00
E      1.00  1.00 -0.50 -0.50
E*     1.00  1.00 -0.50 -0.50
T      3.00 -1.00  0.00  0.00
     imaginary part
A      0.00  0.00  0.00  0.00
E      0.00  0.00  0.87 -0.87
E*     0.00  0.00 -0.87  0.87
T      0.00  0.00  0.00  0.00

     the symmetry operations in each class and the name of the first element:

     E        1
                                                                 
     3C2      2    3    4
                                                                 
     4C3      9   12   10   11
                                                                 
     4C3'     5    7    8    6
                                                                 

     Band symmetry, T    (23)   point group:

     e(  1 -  1) =    -17.11179  eV     1   --> A              
     e(  2 -  4) =    -16.51537  eV     3   --> T              
     e(  5 -  7) =     -7.53257  eV     3   --> T              
     e(  8 -  9) =     -6.73964  eV     2   --> E              
     e(  8 -  9) =     -6.73964  eV     2   --> E*             
     e( 10 - 12) =     -6.49533  eV     3   --> T              
     e( 13 - 15) =     -2.20634  eV     3   --> T              
     e( 16 - 16) =     -1.80442  eV     1   --> A              
     e( 17 - 17) =      2.29574  eV     1   --> A              
     e( 18 - 20) =      5.08482  eV     3   --> T              

 **************************************************************************

 **************************************************************************

                    xk=(  -0.01667,   0.00000,  -0.01667  )

     point group C_1 (1)    
     there are  1 classes
     the character table:

       E    
A      1.00

     the symmetry operations in each class and the name of the first element:

     E        1
                                                                 

     Band symmetry, C_1 (1)     point group:

     e(  1 -  1) =    -17.11108  eV     1   --> A              
     e(  2 -  2) =    -16.52140  eV     1   --> A              
     e(  3 -  3) =    -16.51554  eV     1   --> A              
     e(  4 -  4) =    -16.51000  eV     1   --> A              
     e(  5 -  5) =     -7.53937  eV     1   --> A              
     e(  6 -  6) =     -7.53245  eV     1   --> A              
     e(  7 -  7) =     -7.52398  eV     1   --> A              
     e(  8 -  8) =     -6.74017  eV     1   --> A              
     e(  9 -  9) =     -6.73958  eV     1   --> A              
     e( 10 - 10) =     -6.50511  eV     1   --> A              
     e( 11 - 11) =     -6.49692  eV     1   --> A              
     e( 12 - 12) =     -6.48618  eV     1   --> A              
     e( 13 - 13) =     -2.22025  eV     1   --> A              
     e( 14 - 14) =     -2.20828  eV     1   --> A              
     e( 15 - 15) =     -2.19278  eV     1   --> A              
     e( 16 - 16) =     -1.80516  eV     1   --> A              
     e( 17 - 17) =      2.30153  eV     1   --> A              
     e( 18 - 18) =      5.06333  eV     1   --> A              
     e( 19 - 19) =      5.08931  eV     1   --> A              
     e( 20 - 20) =      5.11194  eV     1   --> A              

 **************************************************************************

 **************************************************************************

                    xk=(  -0.03333,   0.00000,  -0.03333  )

     Band symmetry, C_1 (1)     point group:

     e(  1 -  1) =    -17.10893  eV     1   --> A              
     e(  2 -  2) =    -16.52804  eV     1   --> A              
     e(  3 -  3) =    -16.51602  eV     1   --> A              
     e(  4 -  4) =    -16.50524  eV     1   --> A              
     e(  5 -  5) =     -7.54426  eV     1   --> A              
     e(  6 -  6) =     -7.53201  eV     1   --> A              
     e(  7 -  7) =     -7.51355  eV     1   --> A              
     e(  8 -  8) =     -6.74164  eV     1   --> A              
     e(  9 -  9) =     -6.73929  eV     1   --> A              
     e( 10 - 10) =     -6.51524  eV     1   --> A              
     e( 11 - 11) =     -6.50154  eV     1   --> A              
     e( 12 - 12) =     -6.47766  eV     1   --> A              
     e( 13 - 13) =     -2.23430  eV     1   --> A              
     e( 14 - 14) =     -2.21383  eV     1   --> A              
     e( 15 - 15) =     -2.17952  eV     1   --> A              
     e( 16 - 16) =     -1.80722  eV     1   --> A              
     e( 17 - 17) =      2.31884  eV     1   --> A              
     e( 18 - 18) =      5.04736  eV     1   --> A              
     e( 19 - 19) =      5.10269  eV     1   --> A              
     e( 20 - 20) =      5.14479  eV     1   --> A              

 **************************************************************************

 **************************************************************************

                    xk=(  -0.05000,   0.00000,  -0.05000  )

     Band symmetry, C_1 (1)     point group:

     e(  1 -  1) =    -17.10538  eV     1   --> A              
     e(  2 -  2) =    -16.53527  eV     1   --> A              
     e(  3 -  3) =    -16.51681  eV     1   --> A              
     e(  4 -  4) =    -16.50112  eV     1   --> A              
     e(  5 -  5) =     -7.54733  eV     1   --> A              
     e(  6 -  6) =     -7.53128  eV     1   --> A              
     e(  7 -  7) =     -7.50140  eV     1   --> A              
     e(  8 -  8) =     -6.74411  eV     1   --> A              
     e(  9 -  9) =     -6.73881  eV     1   --> A              
     e( 10 - 10) =     -6.52559  eV     1   --> A              
     e( 11 - 11) =     -6.50919  eV     1   --> A              
     e( 12 - 12) =     -6.46987  eV     1   --> A              
     e( 13 - 13) =     -2.24844  eV     1   --> A              
     e( 14 - 14) =     -2.22283  eV     1   --> A              
     e( 15 - 15) =     -2.16667  eV     1   --> A              
     e( 16 - 16) =     -1.81062  eV     1   --> A              
     e( 17 - 17) =      2.34744  eV     1   --> A              
     e( 18 - 18) =      5.03677  eV     1   --> A              
     e( 19 - 19) =      5.12463  eV     1   --> A              
     e( 20 - 20) =      5.18347  eV     1   --> A              

 **************************************************************************

 **************************************************************************

                    xk=(  -0.06667,   0.00000,  -0.06667  )

     Band symmetry, C_1 (1)     point group:

     e(  1 -  1) =    -17.10042  eV     1   --> A              
     e(  2 -  2) =    -16.54306  eV     1   --> A              
     e(  3 -  3) =    -16.51792  eV     1   --> A              
     e(  4 -  4) =    -16.49762  eV     1   --> A              
     e(  5 -  5) =     -7.54863  eV     1   --> A              
     e(  6 -  6) =     -7.53028  eV     1   --> A              
     e(  7 -  7) =     -7.48764  eV     1   --> A              
     e(  8 -  8) =     -6.74759  eV     1   --> A              
     e(  9 -  9) =     -6.73819  eV     1   --> A              
     e( 10 - 10) =     -6.53593  eV     1   --> A              
     e( 11 - 11) =     -6.51973  eV     1   --> A              
     e( 12 - 12) =     -6.46285  eV     1   --> A              
     e( 13 - 13) =     -2.26257  eV     1   --> A              
     e( 14 - 14) =     -2.23488  eV     1   --> A              
     e( 15 - 15) =     -2.15426  eV     1   --> A              
     e( 16 - 16) =     -1.81532  eV     1   --> A              
     e( 17 - 17) =      2.38700  eV     1   --> A              
     e( 18 - 18) =      5.03138  eV     1   --> A              
     e( 19 - 19) =      5.15459  eV     1   --> A              
     e( 20 - 20) =      5.22806  eV     1   --> A              

 **************************************************************************

 **************************************************************************

                    xk=(  -0.08333,   0.00000,  -0.08333  )

     Band symmetry, C_1 (1)     point group:

     e(  1 -  1) =    -17.09409  eV     1   --> A              
     e(  2 -  2) =    -16.55138  eV     1   --> A              
     e(  3 -  3) =    -16.51937  eV     1   --> A              
     e(  4 -  4) =    -16.49474  eV     1   --> A              
     e(  5 -  5) =     -7.54829  eV     1   --> A              
     e(  6 -  6) =     -7.52901  eV     1   --> A              
     e(  7 -  7) =     -7.47244  eV     1   --> A              
     e(  8 -  8) =     -6.75211  eV     1   --> A              
     e(  9 -  9) =     -6.73748  eV     1   --> A              
     e( 10 - 10) =     -6.54608  eV     1   --> A              
     e( 11 - 11) =     -6.53297  eV     1   --> A              
     e( 12 - 12) =     -6.45664  eV     1   --> A              
     e( 13 - 13) =     -2.27662  eV     1   --> A              
     e( 14 - 14) =     -2.24950  eV     1   --> A              
     e( 15 - 15) =     -2.14235  eV     1   --> A              
     e( 16 - 16) =     -1.82129  eV     1   --> A              
     e( 17 - 17) =      2.43705  eV     1   --> A              
     e( 18 - 18) =      5.03097  eV     1   --> A              
     e( 19 - 19) =      5.19178  eV     1   --> A              
     e( 20 - 20) =      5.27867  eV     1   --> A              

 **************************************************************************

 **************************************************************************

                    xk=(  -0.10000,   0.00000,  -0.10000  )

     Band symmetry, C_1 (1)     point group:

     e(  1 -  1) =    -17.08643  eV     1   --> A              
     e(  2 -  2) =    -16.56019  eV     1   --> A              
     e(  3 -  3) =    -16.52115  eV     1   --> A              
     e(  4 -  4) =    -16.49248  eV     1   --> A              
     e(  5 -  5) =     -7.54647  eV     1   --> A              
     e(  6 -  6) =     -7.52752  eV     1   --> A              
     e(  7 -  7) =     -7.45601  eV     1   --> A              
     e(  8 -  8) =     -6.75768  eV     1   --> A              
     e(  9 -  9) =     -6.73677  eV     1   --> A              
     e( 10 - 10) =     -6.55620  eV     1   --> A              
     e( 11 - 11) =     -6.54828  eV     1   --> A              
     e( 12 - 12) =     -6.45125  eV     1   --> A              
     e( 13 - 13) =     -2.29052  eV     1   --> A              
     e( 14 - 14) =     -2.26614  eV     1   --> A              
     e( 15 - 15) =     -2.13100  eV     1   --> A              
     e( 16 - 16) =     -1.82843  eV     1   --> A              
     e( 17 - 17) =      2.49704  eV     1   --> A              
     e( 18 - 18) =      5.03527  eV     1   --> A              
     e( 19 - 19) =      5.23522  eV     1   --> A              
     e( 20 - 20) =      5.33543  eV     1   --> A              

 **************************************************************************

 **************************************************************************

                    xk=(  -0.11667,   0.00000,  -0.11667  )

     Band symmetry, C_1 (1)     point group:

     e(  1 -  1) =    -17.07748  eV     1   --> A              
     e(  2 -  2) =    -16.56942  eV     1   --> A              
     e(  3 -  3) =    -16.52327  eV     1   --> A              
     e(  4 -  4) =    -16.49081  eV     1   --> A              
     e(  5 -  5) =     -7.54335  eV     1   --> A              
     e(  6 -  6) =     -7.52580  eV     1   --> A              
     e(  7 -  7) =     -7.43856  eV     1   --> A              
     e(  8 -  8) =     -6.76427  eV     1   --> A              
     e(  9 -  9) =     -6.73618  eV     1   --> A              
     e( 10 - 10) =     -6.56980  eV     1   --> A              
     e( 11 - 11) =     -6.56154  eV     1   --> A              
     e( 12 - 12) =     -6.44666  eV     1   --> A              
     e( 13 - 13) =     -2.30421  eV     1   --> A              
     e( 14 - 14) =     -2.28412  eV     1   --> A              
     e( 15 - 15) =     -2.12020  eV     1   --> A              
     e( 16 - 16) =     -1.83664  eV     1   --> A              
     e( 17 - 17) =      2.56635  eV     1   --> A              
     e( 18 - 18) =      5.04396  eV     1   --> A              
     e( 19 - 19) =      5.28370  eV     1   --> A              
     e( 20 - 20) =      5.39846  eV     1   --> A              

 **************************************************************************

 **************************************************************************

                    xk=(  -0.13333,   0.00000,  -0.13333  )

     Band symmetry, C_1 (1)     point group:

     e(  1 -  1) =    -17.06728  eV     1   --> A              
     e(  2 -  2) =    -16.57903  eV     1   --> A              
     e(  3 -  3) =    -16.52573  eV     1   --> A              
     e(  4 -  4) =    -16.48972  eV     1   --> A              
     e(  5 -  5) =     -7.53917  eV     1   --> A              
     e(  6 -  6) =     -7.52387  eV     1   --> A              
     e(  7 -  7) =     -7.42035  eV     1   --> A              
     e(  8 -  8) =     -6.77179  eV     1   --> A              
     e(  9 -  9) =     -6.73592  eV     1   --> A              
     e( 10 - 10) =     -6.58925  eV     1   --> A              
     e( 11 - 11) =     -6.56974  eV     1   --> A              
     e( 12 - 12) =     -6.44286  eV     1   --> A              
     e( 13 - 13) =     -2.31776  eV     1   --> A              
     e( 14 - 14) =     -2.30272  eV     1   --> A              
     e( 15 - 15) =     -2.10998  eV     1   --> A              
     e( 16 - 16) =     -1.84575  eV     1   --> A              
     e( 17 - 17) =      2.64433  eV     1   --> A              
     e( 18 - 18) =      5.05668  eV     1   --> A              
     e( 19 - 19) =      5.33588  eV     1   --> A              
     e( 20 - 20) =      5.46779  eV     1   --> A              

 **************************************************************************

 **************************************************************************

                    xk=(  -0.15000,   0.00000,  -0.15000  )

     Band symmetry, C_1 (1)     point group:

     e(  1 -  1) =    -17.05588  eV     1   --> A              
     e(  2 -  2) =    -16.58895  eV     1   --> A              
     e(  3 -  3) =    -16.52851  eV     1   --> A              
     e(  4 -  4) =    -16.48922  eV     1   --> A              
     e(  5 -  5) =     -7.53423  eV     1   --> A              
     e(  6 -  6) =     -7.52170  eV     1   --> A              
     e(  7 -  7) =     -7.40167  eV     1   --> A              
     e(  8 -  8) =     -6.78012  eV     1   --> A              
     e(  9 -  9) =     -6.73634  eV     1   --> A              
     e( 10 - 10) =     -6.61077  eV     1   --> A              
     e( 11 - 11) =     -6.57582  eV     1   --> A              
     e( 12 - 12) =     -6.43982  eV     1   --> A              
     e( 13 - 13) =     -2.33156  eV     1   --> A              
     e( 14 - 14) =     -2.32084  eV     1   --> A              
     e( 15 - 15) =     -2.10033  eV     1   --> A              
     e( 16 - 16) =     -1.85560  eV     1   --> A              
     e( 17 - 17) =      2.73028  eV     1   --> A              
     e( 18 - 18) =      5.07299  eV     1   --> A              
     e( 19 - 19) =      5.39032  eV     1   --> A              
     e( 20 - 20) =      5.54337  eV     1   --> A              

 **************************************************************************

 **************************************************************************

                    xk=(  -0.16667,   0.00000,  -0.16667  )

     Band symmetry, C_1 (1)     point group:

     e(  1 -  1) =    -17.04337  eV     1   --> A              
     e(  2 -  2) =    -16.59911  eV     1   --> A              
     e(  3 -  3) =    -16.53161  eV     1   --> A              
     e(  4 -  4) =    -16.48930  eV     1   --> A              
     e(  5 -  5) =     -7.52893  eV     1   --> A              
     e(  6 -  6) =     -7.51917  eV     1   --> A              
     e(  7 -  7) =     -7.38283  eV     1   --> A              
     e(  8 -  8) =     -6.78915  eV     1   --> A              
     e(  9 -  9) =     -6.73811  eV     1   --> A              
     e( 10 - 10) =     -6.63274  eV     1   --> A              
     e( 11 - 11) =     -6.58022  eV     1   --> A              
     e( 12 - 12) =     -6.43753  eV     1   --> A              
     e( 13 - 13) =     -2.34674  eV     1   --> A              
     e( 14 - 14) =     -2.33675  eV     1   --> A              
     e( 15 - 15) =     -2.09126  eV     1   --> A              
     e( 16 - 16) =     -1.86603  eV     1   --> A              
     e( 17 - 17) =      2.82353  eV     1   --> A              
     e( 18 - 18) =      5.09243  eV     1   --> A              
     e( 19 - 19) =      5.44552  eV     1   --> A              
     e( 20 - 20) =      5.62493  eV     1   --> A              

 **************************************************************************

 **************************************************************************

                    xk=(  -0.18333,   0.00000,  -0.18333  )

     Band symmetry, C_1 (1)     point group:

     e(  1 -  1) =    -17.02979  eV     1   --> A              
     e(  2 -  2) =    -16.60942  eV     1   --> A              
     e(  3 -  3) =    -16.53500  eV     1   --> A              
     e(  4 -  4) =    -16.48997  eV     1   --> A              
     e(  5 -  5) =     -7.52386  eV     1   --> A              
     e(  6 -  6) =     -7.51597  eV     1   --> A              
     e(  7 -  7) =     -7.36414  eV     1   --> A              
     e(  8 -  8) =     -6.79882  eV     1   --> A              
     e(  9 -  9) =     -6.74237  eV     1   --> A              
     e( 10 - 10) =     -6.65336  eV     1   --> A              
     e( 11 - 11) =     -6.58295  eV     1   --> A              
     e( 12 - 12) =     -6.43597  eV     1   --> A              
     e( 13 - 13) =     -2.36344  eV     1   --> A              
     e( 14 - 14) =     -2.34973  eV     1   --> A              
     e( 15 - 15) =     -2.08275  eV     1   --> A              
     e( 16 - 16) =     -1.87682  eV     1   --> A              
     e( 17 - 17) =      2.92339  eV     1   --> A              
     e( 18 - 18) =      5.11446  eV     1   --> A              
     e( 19 - 19) =      5.49993  eV     1   --> A              
     e( 20 - 20) =      5.71207  eV     1   --> A              

 **************************************************************************

 **************************************************************************

                    xk=(  -0.20000,   0.00000,  -0.20000  )

     Band symmetry, C_1 (1)     point group:

     e(  1 -  1) =    -17.01524  eV     1   --> A              
     e(  2 -  2) =    -16.61983  eV     1   --> A              
     e(  3 -  3) =    -16.53865  eV     1   --> A              
     e(  4 -  4) =    -16.49123  eV     1   --> A              
     e(  5 -  5) =     -7.51977  eV     1   --> A              
     e(  6 -  6) =     -7.51169  eV     1   --> A              
     e(  7 -  7) =     -7.34595  eV     1   --> A              
     e(  8 -  8) =     -6.80938  eV     1   --> A              
     e(  9 -  9) =     -6.75066  eV     1   --> A              
     e( 10 - 10) =     -6.67019  eV     1   --> A              
     e( 11 - 11) =     -6.58406  eV     1   --> A              
     e( 12 - 12) =     -6.43512  eV     1   --> A              
     e( 13 - 13) =     -2.38006  eV     1   --> A              
     e( 14 - 14) =     -2.36098  eV     1   --> A              
     e( 15 - 15) =     -2.07477  eV     1   --> A              
     e( 16 - 16) =     -1.88780  eV     1   --> A              
     e( 17 - 17) =      3.02921  eV     1   --> A              
     e( 18 - 18) =      5.13848  eV     1   --> A              
     e( 19 - 19) =      5.55193  eV     1   --> A              
     e( 20 - 20) =      5.80421  eV     1   --> A              

 **************************************************************************

 **************************************************************************

                    xk=(  -0.21667,   0.00000,  -0.21667  )

     Band symmetry, C_1 (1)     point group:

     e(  1 -  1) =    -16.99979  eV     1   --> A              
     e(  2 -  2) =    -16.63025  eV     1   --> A              
     e(  3 -  3) =    -16.54253  eV     1   --> A              
     e(  4 -  4) =    -16.49310  eV     1   --> A              
     e(  5 -  5) =     -7.51671  eV     1   --> A              
     e(  6 -  6) =     -7.50652  eV     1   --> A              
     e(  7 -  7) =     -7.32858  eV     1   --> A              
     e(  8 -  8) =     -6.82181  eV     1   --> A              
     e(  9 -  9) =     -6.76320  eV     1   --> A              
     e( 10 - 10) =     -6.68126  eV     1   --> A              
     e( 11 - 11) =     -6.58360  eV     1   --> A              
     e( 12 - 12) =     -6.43498  eV     1   --> A              
     e( 13 - 13) =     -2.39555  eV     1   --> A              
     e( 14 - 14) =     -2.37113  eV     1   --> A              
     e( 15 - 15) =     -2.06730  eV     1   --> A              
     e( 16 - 16) =     -1.89880  eV     1   --> A              
     e( 17 - 17) =      3.14037  eV     1   --> A              
     e( 18 - 18) =      5.16386  eV     1   --> A              
     e( 19 - 19) =      5.59978  eV     1   --> A              
     e( 20 - 20) =      5.90068  eV     1   --> A              

 **************************************************************************

 **************************************************************************

                    xk=(  -0.23333,   0.00000,  -0.23333  )

     Band symmetry, C_1 (1)     point group:

     e(  1 -  1) =    -16.98354  eV     1   --> A              
     e(  2 -  2) =    -16.64061  eV     1   --> A              
     e(  3 -  3) =    -16.54660  eV     1   --> A              
     e(  4 -  4) =    -16.49559  eV     1   --> A              
     e(  5 -  5) =     -7.51423  eV     1   --> A              
     e(  6 -  6) =     -7.50119  eV     1   --> A              
     e(  7 -  7) =     -7.31234  eV     1   --> A              
     e(  8 -  8) =     -6.83818  eV     1   --> A              
     e(  9 -  9) =     -6.77680  eV     1   --> A              
     e( 10 - 10) =     -6.68695  eV     1   --> A              
     e( 11 - 11) =     -6.58171  eV     1   --> A              
     e( 12 - 12) =     -6.43554  eV     1   --> A              
     e( 13 - 13) =     -2.40948  eV     1   --> A              
     e( 14 - 14) =     -2.38038  eV     1   --> A              
     e( 15 - 15) =     -2.06031  eV     1   --> A              
     e( 16 - 16) =     -1.90963  eV     1   --> A              
     e( 17 - 17) =      3.25629  eV     1   --> A              
     e( 18 - 18) =      5.18991  eV     1   --> A              
     e( 19 - 19) =      5.64174  eV     1   --> A              
     e( 20 - 20) =      6.00075  eV     1   --> A              

 **************************************************************************

 **************************************************************************

                    xk=(  -0.25000,   0.00000,  -0.25000  )

     Band symmetry, C_1 (1)     point group:

     e(  1 -  1) =    -16.96659  eV     1   --> A              
     e(  2 -  2) =    -16.65081  eV     1   --> A              
     e(  3 -  3) =    -16.55080  eV     1   --> A              
     e(  4 -  4) =    -16.49873  eV     1   --> A              
     e(  5 -  5) =     -7.51201  eV     1   --> A              
     e(  6 -  6) =     -7.49614  eV     1   --> A              
     e(  7 -  7) =     -7.29749  eV     1   --> A              
     e(  8 -  8) =     -6.86041  eV     1   --> A              
     e(  9 -  9) =     -6.78697  eV     1   --> A              
     e( 10 - 10) =     -6.68910  eV     1   --> A              
     e( 11 - 11) =     -6.57852  eV     1   --> A              
     e( 12 - 12) =     -6.43677  eV     1   --> A              
     e( 13 - 13) =     -2.42154  eV     1   --> A              
     e( 14 - 14) =     -2.38879  eV     1   --> A              
     e( 15 - 15) =     -2.05375  eV     1   --> A              
     e( 16 - 16) =     -1.92014  eV     1   --> A              
     e( 17 - 17) =      3.37644  eV     1   --> A              
     e( 18 - 18) =      5.21593  eV     1   --> A              
     e( 19 - 19) =      5.67608  eV     1   --> A              
     e( 20 - 20) =      6.10361  eV     1   --> A              

 **************************************************************************

 **************************************************************************

                    xk=(  -0.26667,   0.00000,  -0.26667  )

     Band symmetry, C_1 (1)     point group:

     e(  1 -  1) =    -16.94903  eV     1   --> A              
     e(  2 -  2) =    -16.66079  eV     1   --> A              
     e(  3 -  3) =    -16.55509  eV     1   --> A              
     e(  4 -  4) =    -16.50252  eV     1   --> A              
     e(  5 -  5) =     -7.50995  eV     1   --> A              
     e(  6 -  6) =     -7.49166  eV     1   --> A              
     e(  7 -  7) =     -7.28421  eV     1   --> A              
     e(  8 -  8) =     -6.88806  eV     1   --> A              
     e(  9 -  9) =     -6.79201  eV     1   --> A              
     e( 10 - 10) =     -6.68921  eV     1   --> A              
     e( 11 - 11) =     -6.57420  eV     1   --> A              
     e( 12 - 12) =     -6.43868  eV     1   --> A              
     e( 13 - 13) =     -2.43161  eV     1   --> A              
     e( 14 - 14) =     -2.39640  eV     1   --> A              
     e( 15 - 15) =     -2.04758  eV     1   --> A              
     e( 16 - 16) =     -1.93018  eV     1   --> A              
     e( 17 - 17) =      3.50030  eV     1   --> A              
     e( 18 - 18) =      5.24118  eV     1   --> A              
     e( 19 - 19) =      5.70135  eV     1   --> A              
     e( 20 - 20) =      6.20838  eV     1   --> A              

 **************************************************************************

 **************************************************************************

                    xk=(  -0.28333,   0.00000,  -0.28333  )

     Band symmetry, C_1 (1)     point group:

     e(  1 -  1) =    -16.93099  eV     1   --> A              
     e(  2 -  2) =    -16.67046  eV     1   --> A              
     e(  3 -  3) =    -16.55940  eV     1   --> A              
     e(  4 -  4) =    -16.50700  eV     1   --> A              
     e(  5 -  5) =     -7.50798  eV     1   --> A              
     e(  6 -  6) =     -7.48787  eV     1   --> A              
     e(  7 -  7) =     -7.27267  eV     1   --> A              
     e(  8 -  8) =     -6.91920  eV     1   --> A              
     e(  9 -  9) =     -6.79249  eV     1   --> A              
     e( 10 - 10) =     -6.68818  eV     1   --> A              
     e( 11 - 11) =     -6.56896  eV     1   --> A              
     e( 12 - 12) =     -6.44128  eV     1   --> A              
     e( 13 - 13) =     -2.43968  eV     1   --> A              
     e( 14 - 14) =     -2.40326  eV     1   --> A              
     e( 15 - 15) =     -2.04177  eV     1   --> A              
     e( 16 - 16) =     -1.93967  eV     1   --> A              
     e( 17 - 17) =      3.62743  eV     1   --> A              
     e( 18 - 18) =      5.26499  eV     1   --> A              
     e( 19 - 19) =      5.71654  eV     1   --> A              
     e( 20 - 20) =      6.31390  eV     1   --> A              

 **************************************************************************

 **************************************************************************

                    xk=(  -0.30000,   0.00000,  -0.30000  )

     Band symmetry, C_1 (1)     point group:

     e(  1 -  1) =    -16.91258  eV     1   --> A              
     e(  2 -  2) =    -16.67975  eV     1   --> A              
     e(  3 -  3) =    -16.56369  eV     1   --> A              
     e(  4 -  4) =    -16.51217  eV     1   --> A              
     e(  5 -  5) =     -7.50605  eV     1   --> A              
     e(  6 -  6) =     -7.48481  eV     1   --> A              
     e(  7 -  7) =     -7.26287  eV     1   --> A              
     e(  8 -  8) =     -6.95217  eV     1   --> A              
     e(  9 -  9) =     -6.78923  eV     1   --> A              
     e( 10 - 10) =     -6.68650  eV     1   --> A              
     e( 11 - 11) =     -6.56303  eV     1   --> A              
     e( 12 - 12) =     -6.44456  eV     1   --> A              
     e( 13 - 13) =     -2.44579  eV     1   --> A              
     e( 14 - 14) =     -2.40941  eV     1   --> A              
     e( 15 - 15) =     -2.03629  eV     1   --> A              
     e( 16 - 16) =     -1.94851  eV     1   --> A              
     e( 17 - 17) =      3.75739  eV     1   --> A              
     e( 18 - 18) =      5.28672  eV     1   --> A              
     e( 19 - 19) =      5.72133  eV     1   --> A              
     e( 20 - 20) =      6.41821  eV     1   --> A              

 **************************************************************************

 **************************************************************************

                    xk=(  -0.31667,   0.00000,  -0.31667  )

     Band symmetry, C_1 (1)     point group:

     e(  1 -  1) =    -16.89395  eV     1   --> A              
     e(  2 -  2) =    -16.68859  eV     1   --> A              
     e(  3 -  3) =    -16.56789  eV     1   --> A              
     e(  4 -  4) =    -16.51802  eV     1   --> A              
     e(  5 -  5) =     -7.50411  eV     1   --> A              
     e(  6 -  6) =     -7.48247  eV     1   --> A              
     e(  7 -  7) =     -7.25478  eV     1   --> A              
     e(  8 -  8) =     -6.98585  eV     1   --> A              
     e(  9 -  9) =     -6.78287  eV     1   --> A              
     e( 10 - 10) =     -6.68444  eV     1   --> A              
     e( 11 - 11) =     -6.55662  eV     1   --> A              
     e( 12 - 12) =     -6.44852  eV     1   --> A              
     e( 13 - 13) =     -2.45004  eV     1   --> A              
     e( 14 - 14) =     -2.41492  eV     1   --> A              
     e( 15 - 15) =     -2.03111  eV     1   --> A              
     e( 16 - 16) =     -1.95666  eV     1   --> A              
     e( 17 - 17) =      3.88980  eV     1   --> A              
     e( 18 - 18) =      5.30584  eV     1   --> A              
     e( 19 - 19) =      5.71619  eV     1   --> A              
     e( 20 - 20) =      6.51616  eV     1   --> A              

 **************************************************************************

 **************************************************************************

                    xk=(  -0.33333,   0.00000,  -0.33333  )

     Band symmetry, C_1 (1)     point group:

     e(  1 -  1) =    -16.87521  eV     1   --> A              
     e(  2 -  2) =    -16.69691  eV     1   --> A              
     e(  3 -  3) =    -16.57195  eV     1   --> A              
     e(  4 -  4) =    -16.52456  eV     1   --> A              
     e(  5 -  5) =     -7.50209  eV     1   --> A              
     e(  6 -  6) =     -7.48076  eV     1   --> A              
     e(  7 -  7) =     -7.24825  eV     1   --> A              
     e(  8 -  8) =     -7.01943  eV     1   --> A              
     e(  9 -  9) =     -6.77389  eV     1   --> A              
     e( 10 - 10) =     -6.68219  eV     1   --> A              
     e( 11 - 11) =     -6.54995  eV     1   --> A              
     e( 12 - 12) =     -6.45315  eV     1   --> A              
     e( 13 - 13) =     -2.45260  eV     1   --> A              
     e( 14 - 14) =     -2.41979  eV     1   --> A              
     e( 15 - 15) =     -2.02619  eV     1   --> A              
     e( 16 - 16) =     -1.96405  eV     1   --> A              
     e( 17 - 17) =      4.02431  eV     1   --> A              
     e( 18 - 18) =      5.32198  eV     1   --> A              
     e( 19 - 19) =      5.70231  eV     1   --> A              
     e( 20 - 20) =      6.58581  eV     1   --> A              

 **************************************************************************

 **************************************************************************

                    xk=(  -0.35000,   0.00000,  -0.35000  )

     Band symmetry, C_1 (1)     point group:

     e(  1 -  1) =    -16.85654  eV     1   --> A              
     e(  2 -  2) =    -16.70464  eV     1   --> A              
     e(  3 -  3) =    -16.57581  eV     1   --> A              
     e(  4 -  4) =    -16.53174  eV     1   --> A              
     e(  5 -  5) =     -7.49993  eV     1   --> A              
     e(  6 -  6) =     -7.47958  eV     1   --> A              
     e(  7 -  7) =     -7.24311  eV     1   --> A              
     e(  8 -  8) =     -7.05229  eV     1   --> A              
     e(  9 -  9) =     -6.76282  eV     1   --> A              
     e( 10 - 10) =     -6.67986  eV     1   --> A              
     e( 11 - 11) =     -6.54322  eV     1   --> A              
     e( 12 - 12) =     -6.45840  eV     1   --> A              
     e( 13 - 13) =     -2.45366  eV     1   --> A              
     e( 14 - 14) =     -2.42409  eV     1   --> A              
     e( 15 - 15) =     -2.02153  eV     1   --> A              
     e( 16 - 16) =     -1.97068  eV     1   --> A              
     e( 17 - 17) =      4.16060  eV     1   --> A              
     e( 18 - 18) =      5.33496  eV     1   --> A              
     e( 19 - 19) =      5.68141  eV     1   --> A              
     e( 20 - 20) =      6.56510  eV     1   --> A              

 **************************************************************************

 **************************************************************************

                    xk=(  -0.36667,   0.00000,  -0.36667  )

     Band symmetry, C_1 (1)     point group:

     e(  1 -  1) =    -16.83811  eV     1   --> A              
     e(  2 -  2) =    -16.71173  eV     1   --> A              
     e(  3 -  3) =    -16.57942  eV     1   --> A              
     e(  4 -  4) =    -16.53953  eV     1   --> A              
     e(  5 -  5) =     -7.49759  eV     1   --> A              
     e(  6 -  6) =     -7.47884  eV     1   --> A              
     e(  7 -  7) =     -7.23915  eV     1   --> A              
     e(  8 -  8) =     -7.08392  eV     1   --> A              
     e(  9 -  9) =     -6.75020  eV     1   --> A              
     e( 10 - 10) =     -6.67757  eV     1   --> A              
     e( 11 - 11) =     -6.53667  eV     1   --> A              
     e( 12 - 12) =     -6.46427  eV     1   --> A              
     e( 13 - 13) =     -2.45352  eV     1   --> A              
     e( 14 - 14) =     -2.42786  eV     1   --> A              
     e( 15 - 15) =     -2.01716  eV     1   --> A              
     e( 16 - 16) =     -1.97655  eV     1   --> A              
     e( 17 - 17) =      4.29834  eV     1   --> A              
     e( 18 - 18) =      5.34481  eV     1   --> A              
     e( 19 - 19) =      5.65554  eV     1   --> A              
     e( 20 - 20) =      6.47269  eV     1   --> A              

 **************************************************************************

 **************************************************************************

                    xk=(  -0.38333,   0.00000,  -0.38333  )

     Band symmetry, C_1 (1)     point group:

     e(  1 -  1) =    -16.82013  eV     1   --> A              
     e(  2 -  2) =    -16.71812  eV     1   --> A              
     e(  3 -  3) =    -16.58273  eV     1   --> A              
     e(  4 -  4) =    -16.54782  eV     1   --> A              
     e(  5 -  5) =     -7.49500  eV     1   --> A              
     e(  6 -  6) =     -7.47843  eV     1   --> A              
     e(  7 -  7) =     -7.23618  eV     1   --> A              
     e(  8 -  8) =     -7.11381  eV     1   --> A              
     e(  9 -  9) =     -6.73658  eV     1   --> A              
     e( 10 - 10) =     -6.67538  eV     1   --> A              
     e( 11 - 11) =     -6.53047  eV     1   --> A              
     e( 12 - 12) =     -6.47065  eV     1   --> A              
     e( 13 - 13) =     -2.45245  eV     1   --> A              
     e( 14 - 14) =     -2.43115  eV     1   --> A              
     e( 15 - 15) =     -2.01311  eV     1   --> A              
     e( 16 - 16) =     -1.98168  eV     1   --> A              
     e( 17 - 17) =      4.43724  eV     1   --> A              
     e( 18 - 18) =      5.35178  eV     1   --> A              
     e( 19 - 19) =      5.62679  eV     1   --> A              
     e( 20 - 20) =      6.35880  eV     1   --> A              

 **************************************************************************

 **************************************************************************

                    xk=(  -0.40000,   0.00000,  -0.40000  )

     Band symmetry, C_1 (1)     point group:

     e(  1 -  1) =    -16.80285  eV     1   --> A              
     e(  2 -  2) =    -16.72375  eV     1   --> A              
     e(  3 -  3) =    -16.58569  eV     1   --> A              
     e(  4 -  4) =    -16.55646  eV     1   --> A              
     e(  5 -  5) =     -7.49215  eV     1   --> A              
     e(  6 -  6) =     -7.47823  eV     1   --> A              
     e(  7 -  7) =     -7.23398  eV     1   --> A              
     e(  8 -  8) =     -7.14143  eV     1   --> A              
     e(  9 -  9) =     -6.72252  eV     1   --> A              
     e( 10 - 10) =     -6.67335  eV     1   --> A              
     e( 11 - 11) =     -6.52476  eV     1   --> A              
     e( 12 - 12) =     -6.47741  eV     1   --> A              
     e( 13 - 13) =     -2.45072  eV     1   --> A              
     e( 14 - 14) =     -2.43395  eV     1   --> A              
     e( 15 - 15) =     -2.00939  eV     1   --> A              
     e( 16 - 16) =     -1.98606  eV     1   --> A              
     e( 17 - 17) =      4.57702  eV     1   --> A              
     e( 18 - 18) =      5.35631  eV     1   --> A              
     e( 19 - 19) =      5.59723  eV     1   --> A              
     e( 20 - 20) =      6.23632  eV     1   --> A              

 **************************************************************************

 **************************************************************************

                    xk=(  -0.41667,   0.00000,  -0.41667  )

     Band symmetry, C_1 (1)     point group:

     e(  1 -  1) =    -16.78658  eV     1   --> A              
     e(  2 -  2) =    -16.72860  eV     1   --> A              
     e(  3 -  3) =    -16.58827  eV     1   --> A              
     e(  4 -  4) =    -16.56525  eV     1   --> A              
     e(  5 -  5) =     -7.48913  eV     1   --> A              
     e(  6 -  6) =     -7.47818  eV     1   --> A              
     e(  7 -  7) =     -7.23240  eV     1   --> A              
     e(  8 -  8) =     -7.16631  eV     1   --> A              
     e(  9 -  9) =     -6.70865  eV     1   --> A              
     e( 10 - 10) =     -6.67155  eV     1   --> A              
     e( 11 - 11) =     -6.51972  eV     1   --> A              
     e( 12 - 12) =     -6.48438  eV     1   --> A              
     e( 13 - 13) =     -2.44866  eV     1   --> A              
     e( 14 - 14) =     -2.43631  eV     1   --> A              
     e( 15 - 15) =     -2.00609  eV     1   --> A              
     e( 16 - 16) =     -1.98973  eV     1   --> A              
     e( 17 - 17) =      4.71734  eV     1   --> A              
     e( 18 - 18) =      5.35895  eV     1   --> A              
     e( 19 - 19) =      5.56868  eV     1   --> A              
     e( 20 - 20) =      6.10883  eV     1   --> A              

 **************************************************************************

 **************************************************************************

                    xk=(  -0.43333,   0.00000,  -0.43333  )

     Band symmetry, C_1 (1)     point group:

     e(  1 -  1) =    -16.77175  eV     1   --> A              
     e(  2 -  2) =    -16.73261  eV     1   --> A              
     e(  3 -  3) =    -16.59043  eV     1   --> A              
     e(  4 -  4) =    -16.57385  eV     1   --> A              
     e(  5 -  5) =     -7.48603  eV     1   --> A              
     e(  6 -  6) =     -7.47821  eV     1   --> A              
     e(  7 -  7) =     -7.23130  eV     1   --> A              
     e(  8 -  8) =     -7.18788  eV     1   --> A              
     e(  9 -  9) =     -6.69561  eV     1   --> A              
     e( 10 - 10) =     -6.67002  eV     1   --> A              
     e( 11 - 11) =     -6.51545  eV     1   --> A              
     e( 12 - 12) =     -6.49124  eV     1   --> A              
     e( 13 - 13) =     -2.44652  eV     1   --> A              
     e( 14 - 14) =     -2.43824  eV     1   --> A              
     e( 15 - 15) =     -2.00328  eV     1   --> A              
     e( 16 - 16) =     -1.99271  eV     1   --> A              
     e( 17 - 17) =      4.85786  eV     1   --> A              
     e( 18 - 18) =      5.36028  eV     1   --> A              
     e( 19 - 19) =      5.54277  eV     1   --> A              
     e( 20 - 20) =      5.97796  eV     1   --> A              

 **************************************************************************

 **************************************************************************

                    xk=(  -0.45000,   0.00000,  -0.45000  )

     Band symmetry, C_1 (1)     point group:

     e(  1 -  1) =    -16.75890  eV     1   --> A              
     e(  2 -  2) =    -16.73577  eV     1   --> A              
     e(  3 -  3) =    -16.59214  eV     1   --> A              
     e(  4 -  4) =    -16.58177  eV     1   --> A              
     e(  5 -  5) =     -7.48310  eV     1   --> A              
     e(  6 -  6) =     -7.47827  eV     1   --> A              
     e(  7 -  7) =     -7.23055  eV     1   --> A              
     e(  8 -  8) =     -7.20556  eV     1   --> A              
     e(  9 -  9) =     -6.68415  eV     1   --> A              
     e( 10 - 10) =     -6.66878  eV     1   --> A              
     e( 11 - 11) =     -6.51204  eV     1   --> A              
     e( 12 - 12) =     -6.49756  eV     1   --> A              
     e( 13 - 13) =     -2.44455  eV     1   --> A              
     e( 14 - 14) =     -2.43974  eV     1   --> A              
     e( 15 - 15) =     -2.00099  eV     1   --> A              
     e( 16 - 16) =     -1.99500  eV     1   --> A              
     e( 17 - 17) =      4.99808  eV     1   --> A              
     e( 18 - 18) =      5.36087  eV     1   --> A              
     e( 19 - 19) =      5.52092  eV     1   --> A              
     e( 20 - 20) =      5.84484  eV     1   --> A              

 **************************************************************************

 **************************************************************************

                    xk=(  -0.46667,   0.00000,  -0.46667  )

     Band symmetry, C_1 (1)     point group:

     e(  1 -  1) =    -16.74876  eV     1   --> A              
     e(  2 -  2) =    -16.73804  eV     1   --> A              
     e(  3 -  3) =    -16.59338  eV     1   --> A              
     e(  4 -  4) =    -16.58835  eV     1   --> A              
     e(  5 -  5) =     -7.48065  eV     1   --> A              
     e(  6 -  6) =     -7.47835  eV     1   --> A              
     e(  7 -  7) =     -7.23008  eV     1   --> A              
     e(  8 -  8) =     -7.21877  eV     1   --> A              
     e(  9 -  9) =     -6.67508  eV     1   --> A              
     e( 10 - 10) =     -6.66788  eV     1   --> A              
     e( 11 - 11) =     -6.50957  eV     1   --> A              
     e( 12 - 12) =     -6.50280  eV     1   --> A              
     e( 13 - 13) =     -2.44300  eV     1   --> A              
     e( 14 - 14) =     -2.44080  eV     1   --> A              
     e( 15 - 15) =     -1.99932  eV     1   --> A              
     e( 16 - 16) =     -1.99664  eV     1   --> A              
     e( 17 - 17) =      5.13703  eV     1   --> A              
     e( 18 - 18) =      5.36111  eV     1   --> A              
     e( 19 - 19) =      5.50429  eV     1   --> A              
     e( 20 - 20) =      5.71076  eV     1   --> A              

 **************************************************************************

 **************************************************************************

                    xk=(  -0.48333,   0.00000,  -0.48333  )

     Band symmetry, C_1 (1)     point group:

     e(  1 -  1) =    -16.74217  eV     1   --> A              
     e(  2 -  2) =    -16.73941  eV     1   --> A              
     e(  3 -  3) =    -16.59412  eV     1   --> A              
     e(  4 -  4) =    -16.59279  eV     1   --> A              
     e(  5 -  5) =     -7.47900  eV     1   --> A              
     e(  6 -  6) =     -7.47839  eV     1   --> A              
     e(  7 -  7) =     -7.22982  eV     1   --> A              
     e(  8 -  8) =     -7.22695  eV     1   --> A              
     e(  9 -  9) =     -6.66919  eV     1   --> A              
     e( 10 - 10) =     -6.66733  eV     1   --> A              
     e( 11 - 11) =     -6.50807  eV     1   --> A              
     e( 12 - 12) =     -6.50632  eV     1   --> A              
     e( 13 - 13) =     -2.44200  eV     1   --> A              
     e( 14 - 14) =     -2.44145  eV     1   --> A              
     e( 15 - 15) =     -1.99829  eV     1   --> A              
     e( 16 - 16) =     -1.99761  eV     1   --> A              
     e( 17 - 17) =      5.27124  eV     1   --> A              
     e( 18 - 18) =      5.36123  eV     1   --> A              
     e( 19 - 19) =      5.49387  eV     1   --> A              
     e( 20 - 20) =      5.57940  eV     1   --> A              

 **************************************************************************

 **************************************************************************

                    xk=(  -0.50000,   0.00000,  -0.50000  )

     zone border point and non-symmorphic group 
     symmetry decomposition not available

 **************************************************************************

 **************************************************************************

                    xk=(  -0.48750,   0.02500,  -0.48750  )

     point group C_1 (1)    
     there are  1 classes
     the character table:

       E    
A      1.00

     the symmetry operations in each class and the name of the first element:

     E        1
                                                                 

     Band symmetry, C_1 (1)     point group:

     e(  1 -  1) =    -16.74091  eV     1   --> A              
     e(  2 -  2) =    -16.73935  eV     1   --> A              
     e(  3 -  3) =    -16.59443  eV     1   --> A              
     e(  4 -  4) =    -16.59367  eV     1   --> A              
     e(  5 -  5) =     -7.47993  eV     1   --> A              
     e(  6 -  6) =     -7.47958  eV     1   --> A              
     e(  7 -  7) =     -7.23252  eV     1   --> A              
[...]
     e(  7 -  7) =     -7.38773  eV     1   --> A              
     e(  8 -  8) =     -6.77614  eV     1   --> A              
     e(  9 -  9) =     -6.74219  eV     1   --> A              
     e( 10 - 10) =     -6.65886  eV     1   --> A              
     e( 11 - 11) =     -6.56341  eV     1   --> A              
     e( 12 - 12) =     -6.42947  eV     1   --> A              
     e( 13 - 13) =     -2.34617  eV     1   --> A              
     e( 14 - 14) =     -2.33450  eV     1   --> A              
     e( 15 - 15) =     -2.08944  eV     1   --> A              
     e( 16 - 16) =     -1.86514  eV     1   --> A              
     e( 17 - 17) =      2.81588  eV     1   --> A              
     e( 18 - 18) =      5.10046  eV     1   --> A              
     e( 19 - 19) =      5.46947  eV     1   --> A              
     e( 20 - 20) =      5.59679  eV     1   --> A              

 **************************************************************************

 **************************************************************************

                    xk=(  -0.13750,   0.09167,  -0.13750  )

     Band symmetry, C_1 (1)     point group:

     e(  1 -  1) =    -17.05454  eV     1   --> A              
     e(  2 -  2) =    -16.58521  eV     1   --> A              
     e(  3 -  3) =    -16.53244  eV     1   --> A              
     e(  4 -  4) =    -16.49036  eV     1   --> A              
     e(  5 -  5) =     -7.53188  eV     1   --> A              
     e(  6 -  6) =     -7.52541  eV     1   --> A              
     e(  7 -  7) =     -7.40199  eV     1   --> A              
     e(  8 -  8) =     -6.77092  eV     1   --> A              
     e(  9 -  9) =     -6.74226  eV     1   --> A              
     e( 10 - 10) =     -6.63439  eV     1   --> A              
     e( 11 - 11) =     -6.56255  eV     1   --> A              
     e( 12 - 12) =     -6.43298  eV     1   --> A              
     e( 13 - 13) =     -2.33094  eV     1   --> A              
     e( 14 - 14) =     -2.32471  eV     1   --> A              
     e( 15 - 15) =     -2.09729  eV     1   --> A              
     e( 16 - 16) =     -1.85657  eV     1   --> A              
     e( 17 - 17) =      2.73925  eV     1   --> A              
     e( 18 - 18) =      5.08274  eV     1   --> A              
     e( 19 - 19) =      5.41507  eV     1   --> A              
     e( 20 - 20) =      5.53572  eV     1   --> A              

 **************************************************************************

 **************************************************************************

                    xk=(  -0.12500,   0.08333,  -0.12500  )

     Band symmetry, C_1 (1)     point group:

     e(  1 -  1) =    -17.06415  eV     1   --> A              
     e(  2 -  2) =    -16.57790  eV     1   --> A              
     e(  3 -  3) =    -16.52962  eV     1   --> A              
     e(  4 -  4) =    -16.49025  eV     1   --> A              
     e(  5 -  5) =     -7.53568  eV     1   --> A              
     e(  6 -  6) =     -7.52696  eV     1   --> A              
     e(  7 -  7) =     -7.41654  eV     1   --> A              
     e(  8 -  8) =     -6.76568  eV     1   --> A              
     e(  9 -  9) =     -6.74222  eV     1   --> A              
     e( 10 - 10) =     -6.61139  eV     1   --> A              
     e( 11 - 11) =     -6.56050  eV     1   --> A              
     e( 12 - 12) =     -6.43674  eV     1   --> A              
     e( 13 - 13) =     -2.31831  eV     1   --> A              
     e( 14 - 14) =     -2.31144  eV     1   --> A              
     e( 15 - 15) =     -2.10551  eV     1   --> A              
     e( 16 - 16) =     -1.84836  eV     1   --> A              
     e( 17 - 17) =      2.66733  eV     1   --> A              
     e( 18 - 18) =      5.06727  eV     1   --> A              
     e( 19 - 19) =      5.36297  eV     1   --> A              
     e( 20 - 20) =      5.47746  eV     1   --> A              

 **************************************************************************

 **************************************************************************

                    xk=(  -0.11250,   0.07500,  -0.11250  )

     Band symmetry, C_1 (1)     point group:

     e(  1 -  1) =    -17.07296  eV     1   --> A              
     e(  2 -  2) =    -16.57068  eV     1   --> A              
     e(  3 -  3) =    -16.52702  eV     1   --> A              
     e(  4 -  4) =    -16.49063  eV     1   --> A              
     e(  5 -  5) =     -7.53960  eV     1   --> A              
     e(  6 -  6) =     -7.52796  eV     1   --> A              
     e(  7 -  7) =     -7.43112  eV     1   --> A              
     e(  8 -  8) =     -6.76067  eV     1   --> A              
     e(  9 -  9) =     -6.74205  eV     1   --> A              
     e( 10 - 10) =     -6.59021  eV     1   --> A              
     e( 11 - 11) =     -6.55724  eV     1   --> A              
     e( 12 - 12) =     -6.44078  eV     1   --> A              
     e( 13 - 13) =     -2.30770  eV     1   --> A              
     e( 14 - 14) =     -2.29571  eV     1   --> A              
     e( 15 - 15) =     -2.11410  eV     1   --> A              
     e( 16 - 16) =     -1.84061  eV     1   --> A              
     e( 17 - 17) =      2.60057  eV     1   --> A              
     e( 18 - 18) =      5.05431  eV     1   --> A              
     e( 19 - 19) =      5.31389  eV     1   --> A              
     e( 20 - 20) =      5.42220  eV     1   --> A              

 **************************************************************************

 **************************************************************************

                    xk=(  -0.10000,   0.06667,  -0.10000  )

     Band symmetry, C_1 (1)     point group:

     e(  1 -  1) =    -17.08094  eV     1   --> A              
     e(  2 -  2) =    -16.56359  eV     1   --> A              
     e(  3 -  3) =    -16.52465  eV     1   --> A              
     e(  4 -  4) =    -16.49149  eV     1   --> A              
     e(  5 -  5) =     -7.54304  eV     1   --> A              
     e(  6 -  6) =     -7.52881  eV     1   --> A              
     e(  7 -  7) =     -7.44550  eV     1   --> A              
     e(  8 -  8) =     -6.75607  eV     1   --> A              
     e(  9 -  9) =     -6.74176  eV     1   --> A              
     e( 10 - 10) =     -6.57110  eV     1   --> A              
     e( 11 - 11) =     -6.55272  eV     1   --> A              
     e( 12 - 12) =     -6.44515  eV     1   --> A              
     e( 13 - 13) =     -2.29713  eV     1   --> A              
     e( 14 - 14) =     -2.27989  eV     1   --> A              
     e( 15 - 15) =     -2.12305  eV     1   --> A              
     e( 16 - 16) =     -1.83343  eV     1   --> A              
     e( 17 - 17) =      2.53940  eV     1   --> A              
     e( 18 - 18) =      5.04414  eV     1   --> A              
     e( 19 - 19) =      5.26845  eV     1   --> A              
     e( 20 - 20) =      5.37014  eV     1   --> A              

 **************************************************************************

 **************************************************************************

                    xk=(  -0.08750,   0.05833,  -0.08750  )

     Band symmetry, C_1 (1)     point group:

     e(  1 -  1) =    -17.08805  eV     1   --> A              
     e(  2 -  2) =    -16.55667  eV     1   --> A              
     e(  3 -  3) =    -16.52253  eV     1   --> A              
     e(  4 -  4) =    -16.49285  eV     1   --> A              
     e(  5 -  5) =     -7.54571  eV     1   --> A              
     e(  6 -  6) =     -7.52958  eV     1   --> A              
     e(  7 -  7) =     -7.45947  eV     1   --> A              
     e(  8 -  8) =     -6.75200  eV     1   --> A              
     e(  9 -  9) =     -6.74140  eV     1   --> A              
     e( 10 - 10) =     -6.55461  eV     1   --> A              
     e( 11 - 11) =     -6.54659  eV     1   --> A              
     e( 12 - 12) =     -6.44991  eV     1   --> A              
     e( 13 - 13) =     -2.28630  eV     1   --> A              
     e( 14 - 14) =     -2.26469  eV     1   --> A              
     e( 15 - 15) =     -2.13236  eV     1   --> A              
     e( 16 - 16) =     -1.82690  eV     1   --> A              
     e( 17 - 17) =      2.48425  eV     1   --> A              
     e( 18 - 18) =      5.03696  eV     1   --> A              
     e( 19 - 19) =      5.22718  eV     1   --> A              
     e( 20 - 20) =      5.32145  eV     1   --> A              

 **************************************************************************

 **************************************************************************

                    xk=(  -0.07500,   0.05000,  -0.07500  )

     Band symmetry, C_1 (1)     point group:

     e(  1 -  1) =    -17.09428  eV     1   --> A              
     e(  2 -  2) =    -16.54993  eV     1   --> A              
     e(  3 -  3) =    -16.52066  eV     1   --> A              
     e(  4 -  4) =    -16.49469  eV     1   --> A              
     e(  5 -  5) =     -7.54743  eV     1   --> A              
     e(  6 -  6) =     -7.53030  eV     1   --> A              
     e(  7 -  7) =     -7.47283  eV     1   --> A              
     e(  8 -  8) =     -6.74853  eV     1   --> A              
     e(  9 -  9) =     -6.74100  eV     1   --> A              
     e( 10 - 10) =     -6.54324  eV     1   --> A              
     e( 11 - 11) =     -6.53659  eV     1   --> A              
     e( 12 - 12) =     -6.45508  eV     1   --> A              
     e( 13 - 13) =     -2.27522  eV     1   --> A              
     e( 14 - 14) =     -2.25056  eV     1   --> A              
     e( 15 - 15) =     -2.14203  eV     1   --> A              
     e( 16 - 16) =     -1.82109  eV     1   --> A              
     e( 17 - 17) =      2.43552  eV     1   --> A              
     e( 18 - 18) =      5.03300  eV     1   --> A              
     e( 19 - 19) =      5.19053  eV     1   --> A              
     e( 20 - 20) =      5.27627  eV     1   --> A              

 **************************************************************************

 **************************************************************************

                    xk=(  -0.06250,   0.04167,  -0.06250  )

     Band symmetry, C_1 (1)     point group:

     e(  1 -  1) =    -17.09959  eV     1   --> A              
     e(  2 -  2) =    -16.54343  eV     1   --> A              
     e(  3 -  3) =    -16.51907  eV     1   --> A              
     e(  4 -  4) =    -16.49701  eV     1   --> A              
     e(  5 -  5) =     -7.54808  eV     1   --> A              
     e(  6 -  6) =     -7.53095  eV     1   --> A              
     e(  7 -  7) =     -7.48542  eV     1   --> A              
     e(  8 -  8) =     -6.74569  eV     1   --> A              
     e(  9 -  9) =     -6.74064  eV     1   --> A              
     e( 10 - 10) =     -6.53537  eV     1   --> A              
     e( 11 - 11) =     -6.52458  eV     1   --> A              
     e( 12 - 12) =     -6.46069  eV     1   --> A              
     e( 13 - 13) =     -2.26393  eV     1   --> A              
     e( 14 - 14) =     -2.23789  eV     1   --> A              
     e( 15 - 15) =     -2.15205  eV     1   --> A              
     e( 16 - 16) =     -1.81610  eV     1   --> A              
     e( 17 - 17) =      2.39359  eV     1   --> A              
     e( 18 - 18) =      5.03242  eV     1   --> A              
     e( 19 - 19) =      5.15888  eV     1   --> A              
     e( 20 - 20) =      5.23474  eV     1   --> A              

 **************************************************************************

 **************************************************************************

                    xk=(  -0.05000,   0.03333,  -0.05000  )

     Band symmetry, C_1 (1)     point group:

     e(  1 -  1) =    -17.10396  eV     1   --> A              
     e(  2 -  2) =    -16.53719  eV     1   --> A              
     e(  3 -  3) =    -16.51775  eV     1   --> A              
     e(  4 -  4) =    -16.49980  eV     1   --> A              
     e(  5 -  5) =     -7.54756  eV     1   --> A              
     e(  6 -  6) =     -7.53152  eV     1   --> A              
     e(  7 -  7) =     -7.49711  eV     1   --> A              
     e(  8 -  8) =     -6.74344  eV     1   --> A              
     e(  9 -  9) =     -6.74031  eV     1   --> A              
     e( 10 - 10) =     -6.52760  eV     1   --> A              
     e( 11 - 11) =     -6.51420  eV     1   --> A              
     e( 12 - 12) =     -6.46677  eV     1   --> A              
     e( 13 - 13) =     -2.25249  eV     1   --> A              
     e( 14 - 14) =     -2.22700  eV     1   --> A              
     e( 15 - 15) =     -2.16239  eV     1   --> A              
     e( 16 - 16) =     -1.81195  eV     1   --> A              
     e( 17 - 17) =      2.35877  eV     1   --> A              
     e( 18 - 18) =      5.03537  eV     1   --> A              
     e( 19 - 19) =      5.13256  eV     1   --> A              
     e( 20 - 20) =      5.19696  eV     1   --> A              

 **************************************************************************

 **************************************************************************

                    xk=(  -0.03750,   0.02500,  -0.03750  )

     Band symmetry, C_1 (1)     point group:

     e(  1 -  1) =    -17.10737  eV     1   --> A              
     e(  2 -  2) =    -16.53123  eV     1   --> A              
     e(  3 -  3) =    -16.51672  eV     1   --> A              
     e(  4 -  4) =    -16.50304  eV     1   --> A              
     e(  5 -  5) =     -7.54579  eV     1   --> A              
     e(  6 -  6) =     -7.53198  eV     1   --> A              
     e(  7 -  7) =     -7.50776  eV     1   --> A              
     e(  8 -  8) =     -6.74176  eV     1   --> A              
     e(  9 -  9) =     -6.74004  eV     1   --> A              
     e( 10 - 10) =     -6.51959  eV     1   --> A              
     e( 11 - 11) =     -6.50601  eV     1   --> A              
     e( 12 - 12) =     -6.47330  eV     1   --> A              
     e( 13 - 13) =     -2.24095  eV     1   --> A              
     e( 14 - 14) =     -2.21818  eV     1   --> A              
     e( 15 - 15) =     -2.17303  eV     1   --> A              
     e( 16 - 16) =     -1.80870  eV     1   --> A              
     e( 17 - 17) =      2.33138  eV     1   --> A              
     e( 18 - 18) =      5.04199  eV     1   --> A              
     e( 19 - 19) =      5.11182  eV     1   --> A              
     e( 20 - 20) =      5.16303  eV     1   --> A              

 **************************************************************************

 **************************************************************************

                    xk=(  -0.02500,   0.01667,  -0.02500  )

     Band symmetry, C_1 (1)     point group:

     e(  1 -  1) =    -17.10983  eV     1   --> A              
     e(  2 -  2) =    -16.52560  eV     1   --> A              
     e(  3 -  3) =    -16.51598  eV     1   --> A              
     e(  4 -  4) =    -16.50673  eV     1   --> A              
     e(  5 -  5) =     -7.54272  eV     1   --> A              
     e(  6 -  6) =     -7.53232  eV     1   --> A              
     e(  7 -  7) =     -7.51727  eV     1   --> A              
     e(  8 -  8) =     -6.74059  eV     1   --> A              
     e(  9 -  9) =     -6.73985  eV     1   --> A              
     e( 10 - 10) =     -6.51147  eV     1   --> A              
     e( 11 - 11) =     -6.50012  eV     1   --> A              
     e( 12 - 12) =     -6.48027  eV     1   --> A              
     e( 13 - 13) =     -2.22938  eV     1   --> A              
     e( 14 - 14) =     -2.21170  eV     1   --> A              
     e( 15 - 15) =     -2.18394  eV     1   --> A              
     e( 16 - 16) =     -1.80636  eV     1   --> A              
     e( 17 - 17) =      2.31164  eV     1   --> A              
     e( 18 - 18) =      5.05239  eV     1   --> A              
     e( 19 - 19) =      5.09686  eV     1   --> A              
     e( 20 - 20) =      5.13301  eV     1   --> A              

 **************************************************************************

 **************************************************************************

                    xk=(  -0.01250,   0.00833,  -0.01250  )

     Band symmetry, C_1 (1)     point group:

     e(  1 -  1) =    -17.11130  eV     1   --> A              
     e(  2 -  2) =    -16.52031  eV     1   --> A              
     e(  3 -  3) =    -16.51554  eV     1   --> A              
     e(  4 -  4) =    -16.51085  eV     1   --> A              
     e(  5 -  5) =     -7.53833  eV     1   --> A              
     e(  6 -  6) =     -7.53253  eV     1   --> A              
     e(  7 -  7) =     -7.52557  eV     1   --> A              
     e(  8 -  8) =     -6.73990  eV     1   --> A              
     e(  9 -  9) =     -6.73972  eV     1   --> A              
     e( 10 - 10) =     -6.50334  eV     1   --> A              
     e( 11 - 11) =     -6.49656  eV     1   --> A              
     e( 12 - 12) =     -6.48765  eV     1   --> A              
     e( 13 - 13) =     -2.21784  eV     1   --> A              
     e( 14 - 14) =     -2.20773  eV     1   --> A              
     e( 15 - 15) =     -2.19506  eV     1   --> A              
     e( 16 - 16) =     -1.80495  eV     1   --> A              
     e( 17 - 17) =      2.29972  eV     1   --> A              
     e( 18 - 18) =      5.06665  eV     1   --> A              
     e( 19 - 19) =      5.08783  eV     1   --> A              
     e( 20 - 20) =      5.10693  eV     1   --> A              

 **************************************************************************

 **************************************************************************

                    xk=(   0.00000,   0.00000,   0.00000  )

     point group T    (23)  
     there are  4 classes
     the character table:

       E     3C2   4C3   4C3' 
A      1.00  1.00  1.00  1.00
E      1.00  1.00 -0.50 -0.50
E*     1.00  1.00 -0.50 -0.50
T      3.00 -1.00  0.00  0.00
     imaginary part
A      0.00  0.00  0.00  0.00
E      0.00  0.00  0.87 -0.87
E*     0.00  0.00 -0.87  0.87
T      0.00  0.00  0.00  0.00

     the symmetry operations in each class and the name of the first element:

     E        1
                                                                 
     3C2      2    3    4
                                                                 
     4C3      9   12   10   11
                                                                 
     4C3'     5    7    8    6
                                                                 

     Band symmetry, T    (23)   point group:

     e(  1 -  1) =    -17.11179  eV     1   --> A              
     e(  2 -  4) =    -16.51537  eV     3   --> T              
     e(  5 -  7) =     -7.53257  eV     3   --> T              
     e(  8 -  9) =     -6.73964  eV     2   --> E              
     e(  8 -  9) =     -6.73964  eV     2   --> E*             
     e( 10 - 12) =     -6.49533  eV     3   --> T              
     e( 13 - 15) =     -2.20634  eV     3   --> T              
     e( 16 - 16) =     -1.80442  eV     1   --> A              
     e( 17 - 17) =      2.29574  eV     1   --> A              
     e( 18 - 20) =      5.08482  eV     3   --> T              

 **************************************************************************

     BANDS        :     11.47s CPU     13.37s WALL


   This run was terminated on:   4: 2:19  14Dec2022            

=------------------------------------------------------------------------------=
   JOB DONE.
=------------------------------------------------------------------------------=
