
     Program PWSCF v.7.1 starts on 14Dec2022 at  5:57: 5 

     This program is part of the open-source Quantum ESPRESSO suite
     for quantum simulation of materials; please cite
         "P. Giannozzi et al., J. Phys.:Condens. Matter 21 395502 (2009);
         "P. Giannozzi et al., J. Phys.:Condens. Matter 29 465901 (2017);
         "P. Giannozzi et al., J. Chem. Phys. 152 154105 (2020);
          URL http://www.quantum-espresso.org", 
     in publications or presentations arising from this work. More details at
     http://www.quantum-espresso.org/quote

     Parallel version (MPI), running on    14 processors

     MPI processes distributed on     1 nodes
     23309 MiB available memory on the printing compute node when the environment starts

     Reading input from pwrelax.in

     Current dimensions of program PWSCF are:
     Max number of different atomic species (ntypx) = 10
     Max number of k-points (npk) =  40000
     Max angular momentum in pseudopotentials (lmaxx) =  4
     Message from routine setup:
     using ibrav=0 with symmetry is DISCOURAGED, use correct ibrav instead

     R & G space division:  proc/nbgrp/npool/nimage =      14
     Subspace diagonalization in iterative solution of the eigenvalue problem:
     a serial algorithm will be used


     Parallelization info
     --------------------
     sticks:   dense  smooth     PW     G-vecs:    dense   smooth      PW
     Min         262     130     36                11930     4206     630
     Max         263     131     38                11933     4207     633
     Sum        3673    1829    517               167037    58893    8829

     Using Slab Decomposition



     bravais-lattice index     =            0
     lattice parameter (alat)  =       9.7982  a.u.
     unit-cell volume          =     940.6821 (a.u.)^3
     number of atoms/cell      =           16
     number of atomic types    =            2
     number of electrons       =        32.00
     number of Kohn-Sham states=           20
     kinetic-energy cutoff     =      60.0000  Ry
     charge density cutoff     =     480.0000  Ry
     scf convergence threshold =      3.2E-09
     mixing beta               =       0.4000
     number of iterations used =            8  plain     mixing
     energy convergence thresh.=      1.6E-04
     force convergence thresh. =      1.0E-04
     press convergence thresh. =      5.0E-01
     Exchange-correlation= PBE
                           (   1   4   3   4   0   0   0)
     nstep                     =           50


     celldm(1)=   9.798230  celldm(2)=   0.000000  celldm(3)=   0.000000
     celldm(4)=   0.000000  celldm(5)=   0.000000  celldm(6)=   0.000000

     crystal axes: (cart. coord. in units of alat)
               a(1) = (   1.000000   0.000000   0.000000 )  
               a(2) = (   0.000000   1.000000   0.000000 )  
               a(3) = (   0.000000   0.000000   1.000000 )  

     reciprocal axes: (cart. coord. in units 2 pi/alat)
               b(1) = (  1.000000  0.000000  0.000000 )  
               b(2) = (  0.000000  1.000000  0.000000 )  
               b(3) = (  0.000000  0.000000  1.000000 )  


     PseudoPot. # 1 for H  read from file:
     ./pseudo/H.pbe-rrkjus_psl.1.0.0.UPF
     MD5 check sum: 3f4114867bd07edc7f1424d066fc1888
     Pseudo is Ultrasoft, Zval =  1.0
     Generated using &quot;atomic&quot; code by A. Dal Corso  v.6.3MaX
     Using radial grid of  929 points,  2 beta functions with: 
                l(1) =   0
                l(2) =   0
     Q(r) pseudized with 0 coefficients 


     PseudoPot. # 2 for N  read from file:
     ./pseudo/N.pbe-n-rrkjus_psl.1.0.0.UPF
     MD5 check sum: ada94e3ed05223de5319d0572dc76806
     Pseudo is Ultrasoft + core correction, Zval =  5.0
     Generated using &quot;atomic&quot; code by A. Dal Corso  v.6.3MaX
     Using radial grid of 1085 points,  4 beta functions with: 
                l(1) =   0
                l(2) =   0
                l(3) =   1
                l(4) =   1
     Q(r) pseudized with 0 coefficients 


     atomic species   valence    mass     pseudopotential
        H              1.00     1.00794     H ( 1.00)
        N              5.00    14.00670     N ( 1.00)

     12 Sym. Ops. (no inversion) found ( 9 have fractional translation)


                                    s                        frac. trans.

      isym =  1     identity                                     

 cryst.   s( 1) = (     1          0          0      )
                  (     0          1          0      )
                  (     0          0          1      )

 cart.    s( 1) = (  1.0000000  0.0000000  0.0000000 )
                  (  0.0000000  1.0000000  0.0000000 )
                  (  0.0000000  0.0000000  1.0000000 )


      isym =  2     180 deg rotation - cart. axis [0,0,1]        

 cryst.   s( 2) = (    -1          0          0      )    f =(  0.5000000 )
                  (     0         -1          0      )       (  0.0000000 )
                  (     0          0          1      )       ( -0.5000000 )

 cart.    s( 2) = ( -1.0000000  0.0000000  0.0000000 )    f =(  0.5000000 )
                  (  0.0000000 -1.0000000  0.0000000 )       (  0.0000000 )
                  (  0.0000000  0.0000000  1.0000000 )       ( -0.5000000 )


      isym =  3     180 deg rotation - cart. axis [0,1,0]        

 cryst.   s( 3) = (    -1          0          0      )    f =(  0.0000000 )
                  (     0          1          0      )       ( -0.5000000 )
                  (     0          0         -1      )       (  0.5000000 )

 cart.    s( 3) = ( -1.0000000  0.0000000  0.0000000 )    f =(  0.0000000 )
                  (  0.0000000  1.0000000  0.0000000 )       ( -0.5000000 )
                  (  0.0000000  0.0000000 -1.0000000 )       (  0.5000000 )


      isym =  4     180 deg rotation - cart. axis [1,0,0]        

 cryst.   s( 4) = (     1          0          0      )    f =( -0.5000000 )
                  (     0         -1          0      )       (  0.5000000 )
                  (     0          0         -1      )       (  0.0000000 )

 cart.    s( 4) = (  1.0000000  0.0000000  0.0000000 )    f =( -0.5000000 )
                  (  0.0000000 -1.0000000  0.0000000 )       (  0.5000000 )
                  (  0.0000000  0.0000000 -1.0000000 )       (  0.0000000 )


      isym =  5     120 deg rotation - cart. axis [-1,-1,-1]     

 cryst.   s( 5) = (     0          0          1      )
                  (     1          0          0      )
                  (     0          1          0      )

 cart.    s( 5) = (  0.0000000  1.0000000  0.0000000 )
                  (  0.0000000  0.0000000  1.0000000 )
                  (  1.0000000  0.0000000  0.0000000 )


      isym =  6     120 deg rotation - cart. axis [-1,1,1]       

 cryst.   s( 6) = (     0          0         -1      )    f =(  0.0000000 )
                  (    -1          0          0      )       ( -0.5000000 )
                  (     0          1          0      )       (  0.5000000 )

 cart.    s( 6) = (  0.0000000 -1.0000000  0.0000000 )    f =(  0.0000000 )
                  (  0.0000000  0.0000000  1.0000000 )       ( -0.5000000 )
                  ( -1.0000000  0.0000000  0.0000000 )       (  0.5000000 )


      isym =  7     120 deg rotation - cart. axis [1,1,-1]       

 cryst.   s( 7) = (     0          0         -1      )    f =( -0.5000000 )
                  (     1          0          0      )       (  0.5000000 )
                  (     0         -1          0      )       (  0.0000000 )

 cart.    s( 7) = (  0.0000000  1.0000000  0.0000000 )    f =( -0.5000000 )
                  (  0.0000000  0.0000000 -1.0000000 )       (  0.5000000 )
                  ( -1.0000000  0.0000000  0.0000000 )       (  0.0000000 )


      isym =  8     120 deg rotation - cart. axis [1,-1,1]       

 cryst.   s( 8) = (     0          0          1      )    f =(  0.5000000 )
                  (    -1          0          0      )       (  0.0000000 )
                  (     0         -1          0      )       ( -0.5000000 )

 cart.    s( 8) = (  0.0000000 -1.0000000  0.0000000 )    f =(  0.5000000 )
                  (  0.0000000  0.0000000 -1.0000000 )       (  0.0000000 )
                  (  1.0000000  0.0000000  0.0000000 )       ( -0.5000000 )


      isym =  9     120 deg rotation - cart. axis [1,1,1]        

 cryst.   s( 9) = (     0          1          0      )
                  (     0          0          1      )
                  (     1          0          0      )

 cart.    s( 9) = (  0.0000000  0.0000000  1.0000000 )
                  (  1.0000000  0.0000000  0.0000000 )
                  (  0.0000000  1.0000000  0.0000000 )


      isym = 10     120 deg rotation - cart. axis [-1,1,-1]      

 cryst.   s(10) = (     0         -1          0      )    f =( -0.5000000 )
                  (     0          0         -1      )       (  0.5000000 )
                  (     1          0          0      )       (  0.0000000 )

 cart.    s(10) = (  0.0000000  0.0000000  1.0000000 )    f =( -0.5000000 )
                  ( -1.0000000  0.0000000  0.0000000 )       (  0.5000000 )
                  (  0.0000000 -1.0000000  0.0000000 )       (  0.0000000 )


      isym = 11     120 deg rotation - cart. axis [1,-1,-1]      

 cryst.   s(11) = (     0         -1          0      )    f =(  0.5000000 )
                  (     0          0          1      )       (  0.0000000 )
                  (    -1          0          0      )       ( -0.5000000 )

 cart.    s(11) = (  0.0000000  0.0000000 -1.0000000 )    f =(  0.5000000 )
                  ( -1.0000000  0.0000000  0.0000000 )       (  0.0000000 )
                  (  0.0000000  1.0000000  0.0000000 )       ( -0.5000000 )


      isym = 12     120 deg rotation - cart. axis [-1,-1,1]      

 cryst.   s(12) = (     0          1          0      )    f =(  0.0000000 )
                  (     0          0         -1      )       ( -0.5000000 )
                  (    -1          0          0      )       (  0.5000000 )

 cart.    s(12) = (  0.0000000  0.0000000 -1.0000000 )    f =(  0.0000000 )
                  (  1.0000000  0.0000000  0.0000000 )       ( -0.5000000 )
                  (  0.0000000 -1.0000000  0.0000000 )       (  0.5000000 )


   Cartesian axes

     site n.     atom                  positions (alat units)
         1           N   tau(   1) = (   0.2110000   0.2110000   0.2110000  )
         2           N   tau(   2) = (   0.2890000   0.7890000   0.7110000  )
         3           N   tau(   3) = (   0.7890000   0.7110000   0.2890000  )
         4           N   tau(   4) = (   0.7110000   0.2890000   0.7890000  )
         5           H   tau(   5) = (   0.3900000   0.2430000   0.1240000  )
         6           H   tau(   6) = (   0.1100000   0.7570000   0.6240000  )
         7           H   tau(   7) = (   0.6100000   0.7430000   0.3760000  )
         8           H   tau(   8) = (   0.8900000   0.2570000   0.8760000  )
         9           H   tau(   9) = (   0.1240000   0.3900000   0.2430000  )
        10           H   tau(  10) = (   0.6240000   0.1100000   0.7570000  )
        11           H   tau(  11) = (   0.3760000   0.6100000   0.7430000  )
        12           H   tau(  12) = (   0.8760000   0.8900000   0.2570000  )
        13           H   tau(  13) = (   0.2430000   0.1240000   0.3900000  )
        14           H   tau(  14) = (   0.7570000   0.6240000   0.1100000  )
        15           H   tau(  15) = (   0.7430000   0.3760000   0.6100000  )
        16           H   tau(  16) = (   0.2570000   0.8760000   0.8900000  )

   Crystallographic axes

     site n.     atom                  positions (cryst. coord.)
         1           N   tau(   1) = (  0.2110000  0.2110000  0.2110000  )
         2           N   tau(   2) = (  0.2890000  0.7890000  0.7110000  )
         3           N   tau(   3) = (  0.7890000  0.7110000  0.2890000  )
         4           N   tau(   4) = (  0.7110000  0.2890000  0.7890000  )
         5           H   tau(   5) = (  0.3900000  0.2430000  0.1240000  )
         6           H   tau(   6) = (  0.1100000  0.7570000  0.6240000  )
         7           H   tau(   7) = (  0.6100000  0.7430000  0.3760000  )
         8           H   tau(   8) = (  0.8900000  0.2570000  0.8760000  )
         9           H   tau(   9) = (  0.1240000  0.3900000  0.2430000  )
        10           H   tau(  10) = (  0.6240000  0.1100000  0.7570000  )
        11           H   tau(  11) = (  0.3760000  0.6100000  0.7430000  )
        12           H   tau(  12) = (  0.8760000  0.8900000  0.2570000  )
        13           H   tau(  13) = (  0.2430000  0.1240000  0.3900000  )
        14           H   tau(  14) = (  0.7570000  0.6240000  0.1100000  )
        15           H   tau(  15) = (  0.7430000  0.3760000  0.6100000  )
        16           H   tau(  16) = (  0.2570000  0.8760000  0.8900000  )

     number of k points=    24  Marzari-Vanderbilt smearing, width (Ry)=  0.0147
                       cart. coord. in units 2pi/alat
        k(    1) = (   0.0000000   0.0000000   0.0000000), wk =   0.0058309
        k(    2) = (   0.0000000   0.0000000   0.1428571), wk =   0.0349854
        k(    3) = (   0.0000000   0.0000000   0.2857143), wk =   0.0349854
        k(    4) = (   0.0000000   0.0000000   0.4285714), wk =   0.0349854
        k(    5) = (   0.0000000   0.1428571   0.1428571), wk =   0.0699708
        k(    6) = (   0.0000000   0.1428571   0.2857143), wk =   0.0699708
        k(    7) = (   0.0000000   0.1428571   0.4285714), wk =   0.0699708
        k(    8) = (   0.0000000   0.2857143   0.2857143), wk =   0.0699708
        k(    9) = (   0.0000000   0.2857143   0.4285714), wk =   0.0699708
        k(   10) = (   0.0000000   0.4285714   0.4285714), wk =   0.0699708
        k(   11) = (   0.1428571   0.1428571   0.1428571), wk =   0.0466472
        k(   12) = (   0.1428571   0.1428571   0.2857143), wk =   0.1399417
        k(   13) = (   0.1428571   0.1428571   0.4285714), wk =   0.1399417
        k(   14) = (   0.1428571   0.2857143   0.2857143), wk =   0.1399417
        k(   15) = (   0.1428571   0.2857143   0.4285714), wk =   0.1399417
        k(   16) = (   0.1428571   0.4285714   0.4285714), wk =   0.1399417
        k(   17) = (   0.2857143   0.2857143   0.2857143), wk =   0.0466472
        k(   18) = (   0.2857143   0.2857143   0.4285714), wk =   0.1399417
        k(   19) = (   0.2857143   0.4285714   0.4285714), wk =   0.1399417
        k(   20) = (   0.4285714   0.4285714   0.4285714), wk =   0.0466472
        k(   21) = (   0.0000000   0.2857143   0.1428571), wk =   0.0699708
        k(   22) = (   0.0000000   0.4285714   0.1428571), wk =   0.0699708
        k(   23) = (   0.0000000   0.4285714   0.2857143), wk =   0.0699708
        k(   24) = (  -0.1428571   0.4285714   0.2857143), wk =   0.1399417

                       cryst. coord.
        k(    1) = (   0.0000000   0.0000000   0.0000000), wk =   0.0058309
        k(    2) = (   0.0000000   0.0000000   0.1428571), wk =   0.0349854
        k(    3) = (   0.0000000   0.0000000   0.2857143), wk =   0.0349854
        k(    4) = (   0.0000000   0.0000000   0.4285714), wk =   0.0349854
        k(    5) = (   0.0000000   0.1428571   0.1428571), wk =   0.0699708
        k(    6) = (   0.0000000   0.1428571   0.2857143), wk =   0.0699708
        k(    7) = (   0.0000000   0.1428571   0.4285714), wk =   0.0699708
        k(    8) = (   0.0000000   0.2857143   0.2857143), wk =   0.0699708
        k(    9) = (   0.0000000   0.2857143   0.4285714), wk =   0.0699708
        k(   10) = (   0.0000000   0.4285714   0.4285714), wk =   0.0699708
        k(   11) = (   0.1428571   0.1428571   0.1428571), wk =   0.0466472
        k(   12) = (   0.1428571   0.1428571   0.2857143), wk =   0.1399417
        k(   13) = (   0.1428571   0.1428571   0.4285714), wk =   0.1399417
        k(   14) = (   0.1428571   0.2857143   0.2857143), wk =   0.1399417
        k(   15) = (   0.1428571   0.2857143   0.4285714), wk =   0.1399417
        k(   16) = (   0.1428571   0.4285714   0.4285714), wk =   0.1399417
        k(   17) = (   0.2857143   0.2857143   0.2857143), wk =   0.0466472
        k(   18) = (   0.2857143   0.2857143   0.4285714), wk =   0.1399417
        k(   19) = (   0.2857143   0.4285714   0.4285714), wk =   0.1399417
        k(   20) = (   0.4285714   0.4285714   0.4285714), wk =   0.0466472
        k(   21) = (   0.0000000   0.2857143   0.1428571), wk =   0.0699708
        k(   22) = (   0.0000000   0.4285714   0.1428571), wk =   0.0699708
        k(   23) = (   0.0000000   0.4285714   0.2857143), wk =   0.0699708
        k(   24) = (  -0.1428571   0.4285714   0.2857143), wk =   0.1399417

     Dense  grid:   167037 G-vectors     FFT dimensions: (  72,  72,  72)

     Smooth grid:    58893 G-vectors     FFT dimensions: (  50,  50,  50)

     Dynamical RAM for                 wfc:       0.16 MB

     Dynamical RAM for     wfc (w. buffer):       4.02 MB

     Dynamical RAM for           str. fact:       0.36 MB

     Dynamical RAM for           local pot:       0.00 MB

     Dynamical RAM for          nlocal pot:       0.45 MB

     Dynamical RAM for                qrad:       2.01 MB

     Dynamical RAM for          rho,v,vnew:       1.26 MB

     Dynamical RAM for               rhoin:       0.42 MB

     Dynamical RAM for            rho*nmix:       2.91 MB

     Dynamical RAM for           G-vectors:       0.71 MB

     Dynamical RAM for          h,s,v(r/c):       0.07 MB

     Dynamical RAM for          <psi|beta>:       0.02 MB

     Dynamical RAM for                 psi:       0.32 MB

     Dynamical RAM for                hpsi:       0.32 MB

     Dynamical RAM for                spsi:       0.32 MB

     Dynamical RAM for      wfcinit/wfcrot:       0.47 MB

     Dynamical RAM for           addusdens:      10.01 MB

     Dynamical RAM for          addusforce:      14.12 MB

     Dynamical RAM for         addusstress:       9.10 MB

     Estimated static dynamical RAM per process >      10.97 MB

     Estimated max dynamical RAM per process >      28.00 MB

     Estimated total dynamical RAM >     392.04 MB

     Check: negative core charge=   -0.000001

     Initial potential from superposition of free atoms

     starting charge      31.9999, renormalised to      32.0000
     Starting wfcs are   28 randomized atomic wfcs

     total cpu time spent up to now is        4.4 secs

     Self-consistent Calculation

     iteration #  1     ecut=    60.00 Ry     beta= 0.40
     Davidson diagonalization with overlap

---- Real-time Memory Report at c_bands before calling an iterative solver
            49 MiB given to the printing process from OS
             0 MiB allocation reported by mallinfo(arena+hblkhd)
         23027 MiB available memory on the node where the printing process lives
------------------
     ethr =  1.00E-02,  avg # of iterations =  3.0

     total cpu time spent up to now is        8.3 secs

     total energy              =     -95.83605536 Ry
     estimated scf accuracy    <       2.13772777 Ry

     iteration #  2     ecut=    60.00 Ry     beta= 0.40
     Davidson diagonalization with overlap

---- Real-time Memory Report at c_bands before calling an iterative solver
            55 MiB given to the printing process from OS
             0 MiB allocation reported by mallinfo(arena+hblkhd)
         22919 MiB available memory on the node where the printing process lives
------------------
     ethr =  6.68E-03,  avg # of iterations =  2.0

     total cpu time spent up to now is       11.4 secs

     total energy              =     -96.22740560 Ry
     estimated scf accuracy    <       0.11636556 Ry

     iteration #  3     ecut=    60.00 Ry     beta= 0.40
     Davidson diagonalization with overlap

---- Real-time Memory Report at c_bands before calling an iterative solver
            55 MiB given to the printing process from OS
             0 MiB allocation reported by mallinfo(arena+hblkhd)
         22914 MiB available memory on the node where the printing process lives
------------------
     ethr =  3.64E-04,  avg # of iterations =  3.7

     total cpu time spent up to now is       14.3 secs

     total energy              =     -96.21687697 Ry
     estimated scf accuracy    <       0.04178876 Ry

     iteration #  4     ecut=    60.00 Ry     beta= 0.40
     Davidson diagonalization with overlap

---- Real-time Memory Report at c_bands before calling an iterative solver
            55 MiB given to the printing process from OS
             0 MiB allocation reported by mallinfo(arena+hblkhd)
         22907 MiB available memory on the node where the printing process lives
------------------
     ethr =  1.31E-04,  avg # of iterations =  2.9

     total cpu time spent up to now is       17.2 secs

     total energy              =     -96.21994391 Ry
     estimated scf accuracy    <       0.00293182 Ry

     iteration #  5     ecut=    60.00 Ry     beta= 0.40
     Davidson diagonalization with overlap

---- Real-time Memory Report at c_bands before calling an iterative solver
            55 MiB given to the printing process from OS
             0 MiB allocation reported by mallinfo(arena+hblkhd)
         22900 MiB available memory on the node where the printing process lives
------------------
     ethr =  9.16E-06,  avg # of iterations =  5.0

     total cpu time spent up to now is       20.9 secs

     total energy              =     -96.21951263 Ry
     estimated scf accuracy    <       0.00264816 Ry

     iteration #  6     ecut=    60.00 Ry     beta= 0.40
     Davidson diagonalization with overlap

---- Real-time Memory Report at c_bands before calling an iterative solver
            55 MiB given to the printing process from OS
             0 MiB allocation reported by mallinfo(arena+hblkhd)
         22892 MiB available memory on the node where the printing process lives
------------------
     ethr =  8.28E-06,  avg # of iterations =  1.0

     total cpu time spent up to now is       23.3 secs

     total energy              =     -96.21885182 Ry
     estimated scf accuracy    <       0.00107286 Ry

     iteration #  7     ecut=    60.00 Ry     beta= 0.40
     Davidson diagonalization with overlap

---- Real-time Memory Report at c_bands before calling an iterative solver
            55 MiB given to the printing process from OS
             0 MiB allocation reported by mallinfo(arena+hblkhd)
         22890 MiB available memory on the node where the printing process lives
------------------
     ethr =  3.35E-06,  avg # of iterations =  2.0

     total cpu time spent up to now is       26.8 secs

     total energy              =     -96.21930597 Ry
     estimated scf accuracy    <       0.00116889 Ry

     iteration #  8     ecut=    60.00 Ry     beta= 0.40
     Davidson diagonalization with overlap

---- Real-time Memory Report at c_bands before calling an iterative solver
            55 MiB given to the printing process from OS
             0 MiB allocation reported by mallinfo(arena+hblkhd)
         22885 MiB available memory on the node where the printing process lives
------------------
     ethr =  3.35E-06,  avg # of iterations =  1.0

     total cpu time spent up to now is       29.2 secs

     total energy              =     -96.21931136 Ry
     estimated scf accuracy    <       0.00024650 Ry

     iteration #  9     ecut=    60.00 Ry     beta= 0.40
     Davidson diagonalization with overlap

---- Real-time Memory Report at c_bands before calling an iterative solver
            56 MiB given to the printing process from OS
             0 MiB allocation reported by mallinfo(arena+hblkhd)
         22884 MiB available memory on the node where the printing process lives
------------------
     ethr =  7.70E-07,  avg # of iterations =  1.0

     total cpu time spent up to now is       31.6 secs

     total energy              =     -96.21926688 Ry
     estimated scf accuracy    <       0.00008276 Ry

     iteration # 10     ecut=    60.00 Ry     beta= 0.40
     Davidson diagonalization with overlap

---- Real-time Memory Report at c_bands before calling an iterative solver
            56 MiB given to the printing process from OS
             0 MiB allocation reported by mallinfo(arena+hblkhd)
         22883 MiB available memory on the node where the printing process lives
------------------
     ethr =  2.59E-07,  avg # of iterations =  2.5

     total cpu time spent up to now is       35.1 secs

     total energy              =     -96.21925754 Ry
     estimated scf accuracy    <       0.00011313 Ry

     iteration # 11     ecut=    60.00 Ry     beta= 0.40
     Davidson diagonalization with overlap

---- Real-time Memory Report at c_bands before calling an iterative solver
            56 MiB given to the printing process from OS
             0 MiB allocation reported by mallinfo(arena+hblkhd)
         22885 MiB available memory on the node where the printing process lives
------------------
     ethr =  2.59E-07,  avg # of iterations =  3.0

     total cpu time spent up to now is       38.7 secs

     total energy              =     -96.21925491 Ry
     estimated scf accuracy    <       0.00032026 Ry

     iteration # 12     ecut=    60.00 Ry     beta= 0.40
     Davidson diagonalization with overlap

---- Real-time Memory Report at c_bands before calling an iterative solver
            56 MiB given to the printing process from OS
             0 MiB allocation reported by mallinfo(arena+hblkhd)
         22881 MiB available memory on the node where the printing process lives
------------------
     ethr =  2.59E-07,  avg # of iterations =  2.0

     total cpu time spent up to now is       42.0 secs

     total energy              =     -96.21930340 Ry
     estimated scf accuracy    <       0.00000184 Ry

     iteration # 13     ecut=    60.00 Ry     beta= 0.40
     Davidson diagonalization with overlap

---- Real-time Memory Report at c_bands before calling an iterative solver
            56 MiB given to the printing process from OS
             0 MiB allocation reported by mallinfo(arena+hblkhd)
         22881 MiB available memory on the node where the printing process lives
------------------
     ethr =  5.76E-09,  avg # of iterations =  3.0

     total cpu time spent up to now is       45.6 secs

     total energy              =     -96.21930454 Ry
     estimated scf accuracy    <       0.00000066 Ry

     iteration # 14     ecut=    60.00 Ry     beta= 0.40
     Davidson diagonalization with overlap

---- Real-time Memory Report at c_bands before calling an iterative solver
            56 MiB given to the printing process from OS
             0 MiB allocation reported by mallinfo(arena+hblkhd)
         22880 MiB available memory on the node where the printing process lives
------------------
     ethr =  2.07E-09,  avg # of iterations =  1.0

     total cpu time spent up to now is       48.0 secs

     total energy              =     -96.21930438 Ry
     estimated scf accuracy    <       0.00000030 Ry

     iteration # 15     ecut=    60.00 Ry     beta= 0.40
     Davidson diagonalization with overlap

---- Real-time Memory Report at c_bands before calling an iterative solver
            56 MiB given to the printing process from OS
             0 MiB allocation reported by mallinfo(arena+hblkhd)
         22880 MiB available memory on the node where the printing process lives
------------------
     ethr =  9.32E-10,  avg # of iterations =  2.0

     total cpu time spent up to now is       51.3 secs

     total energy              =     -96.21930448 Ry
     estimated scf accuracy    <       0.00000004 Ry

     iteration # 16     ecut=    60.00 Ry     beta= 0.40
     Davidson diagonalization with overlap

---- Real-time Memory Report at c_bands before calling an iterative solver
            56 MiB given to the printing process from OS
             0 MiB allocation reported by mallinfo(arena+hblkhd)
         22879 MiB available memory on the node where the printing process lives
------------------
     ethr =  1.15E-10,  avg # of iterations =  1.0

     total cpu time spent up to now is       53.7 secs

     total energy              =     -96.21930447 Ry
     estimated scf accuracy    <       0.00000001 Ry

     iteration # 17     ecut=    60.00 Ry     beta= 0.40
     Davidson diagonalization with overlap

---- Real-time Memory Report at c_bands before calling an iterative solver
            56 MiB given to the printing process from OS
             0 MiB allocation reported by mallinfo(arena+hblkhd)
         22879 MiB available memory on the node where the printing process lives
------------------
     ethr =  3.69E-11,  avg # of iterations =  2.0

     total cpu time spent up to now is       56.8 secs

     End of self-consistent calculation

          k = 0.0000 0.0000 0.0000 (  7249 PWs)   bands (ev):

   -17.1117 -16.5153 -16.5153 -16.5153  -7.5325  -7.5325  -7.5325  -6.7396
    -6.7396  -6.4953  -6.4953  -6.4953  -2.2063  -2.2063  -2.2063  -1.8043
     2.2958   5.0848   5.0848   5.0848

     occupation numbers 
     1.0000   1.0000   1.0000   1.0000   1.0000   1.0000   1.0000   1.0000
     1.0000   1.0000   1.0000   1.0000   1.0000   1.0000   1.0000   1.0000
     0.0000   0.0000   0.0000   0.0000

          k = 0.0000 0.0000 0.1429 (  7336 PWs)   bands (ev):

   -17.0858 -16.5678 -16.5128 -16.4937  -7.5505  -7.5214  -7.4542  -6.7677
    -6.7252  -6.5708  -6.5268  -6.4628  -2.2962  -2.2606  -2.1332  -1.8291
     2.5019   5.0126   5.2604   5.3330

     occupation numbers 
     1.0000   1.0000   1.0000   1.0000   1.0000   1.0000   1.0000   1.0000
     1.0000   1.0000   1.0000   1.0000   1.0000   1.0000   1.0000   1.0000
     0.0000   0.0000   0.0000   0.0000

          k = 0.0000 0.0000 0.2857 (  7372 PWs)   bands (ev):

   -17.0121 -16.6585 -16.5063 -16.4885  -7.5257  -7.4958  -7.3162  -6.8464
    -6.6841  -6.6584  -6.6078  -6.4824  -2.3845  -2.3673  -2.0789  -1.8934
     3.0504   4.9187   5.7208   5.7579

     occupation numbers 
     1.0000   1.0000   1.0000   1.0000   1.0000   1.0000   1.0000   1.0000
     1.0000   1.0000   1.0000   1.0000   1.0000   1.0000   1.0000   1.0000
     0.0000   0.0000   0.0000   0.0000

          k = 0.0000 0.0000 0.4286 (  7388 PWs)   bands (ev):

   -16.9029 -16.7773 -16.4981 -16.4913  -7.4903  -7.4781  -7.1414  -6.9721
    -6.7136  -6.6967  -6.6138  -6.5412  -2.4421  -2.4398  -2.0294  -1.9679
     3.7821   4.4912   6.1993   6.2090

     occupation numbers 
     1.0000   1.0000   1.0000   1.0000   1.0000   1.0000   1.0000   1.0000
     1.0000   1.0000   1.0000   1.0000   1.0000   1.0000   1.0000   1.0000
     0.0000   0.0000   0.0000   0.0000

          k = 0.0000 0.1429 0.1429 (  7369 PWs)   bands (ev):

   -17.0608 -16.5846 -16.5272 -16.4893  -7.5364  -7.5226  -7.4097  -6.7764
    -6.7360  -6.6013  -6.5734  -6.4410  -2.3255  -2.3131  -2.1043  -1.8512
     2.6925   5.0656   5.3668   5.5102

     occupation numbers 
     1.0000   1.0000   1.0000   1.0000   1.0000   1.0000   1.0000   1.0000
     1.0000   1.0000   1.0000   1.0000   1.0000   1.0000   1.0000   1.0000
     0.0000   0.0000   0.0000   0.0000

          k = 0.0000 0.1429 0.2857 (  7377 PWs)   bands (ev):

   -16.9901 -16.6570 -16.5269 -16.4920  -7.5163  -7.5018  -7.2987  -6.8273
    -6.7731  -6.6818  -6.5889  -6.4482  -2.3978  -2.3871  -2.0640  -1.9073
     3.2080   5.0466   5.6818   5.9586

     occupation numbers 
     1.0000   1.0000   1.0000   1.0000   1.0000   1.0000   1.0000   1.0000
     1.0000   1.0000   1.0000   1.0000   1.0000   1.0000   1.0000   1.0000
     0.0000   0.0000   0.0000   0.0000

          k = 0.0000 0.1429 0.4286 (  7375 PWs)   bands (ev):

   -16.8858 -16.7668 -16.5150 -16.5018  -7.4958  -7.4859  -7.1422  -6.9682
    -6.7861  -6.7440  -6.5523  -6.4932  -2.4467  -2.4385  -2.0237  -1.9715
     3.9134   4.6198   6.1410   6.3640

     occupation numbers 
     1.0000   1.0000   1.0000   1.0000   1.0000   1.0000   1.0000   1.0000
     1.0000   1.0000   1.0000   1.0000   1.0000   1.0000   1.0000   1.0000
     0.0000   0.0000   0.0000   0.0000

          k = 0.0000 0.2857 0.2857 (  7385 PWs)   bands (ev):

   -16.9283 -16.6717 -16.5599 -16.5076  -7.5076  -7.4873  -7.2711  -6.9238
    -6.7922  -6.6879  -6.5681  -6.4416  -2.4406  -2.4041  -2.0409  -1.9409
     3.6459   5.2683   5.7179   6.3290

     occupation numbers 
     1.0000   1.0000   1.0000   1.0000   1.0000   1.0000   1.0000   1.0000
     1.0000   1.0000   1.0000   1.0000   1.0000   1.0000   1.0000   1.0000
     0.0000   0.0000   0.0000   0.0000

          k = 0.0000 0.2857 0.4286 (  7405 PWs)   bands (ev):

   -16.8386 -16.7416 -16.5565 -16.5321  -7.4978  -7.4905  -7.1845  -7.0560
    -6.7799  -6.7311  -6.5121  -6.4631  -2.4523  -2.4351  -2.0138  -1.9803
     4.2816   4.9713   5.9498   6.4511

     occupation numbers 
     1.0000   1.0000   1.0000   1.0000   1.0000   1.0000   1.0000   1.0000
     1.0000   1.0000   1.0000   1.0000   1.0000   1.0000   1.0000   1.0000
     0.0000   0.0000   0.0000   0.0000

          k = 0.0000 0.4286 0.4286 (  7383 PWs)   bands (ev):

   -16.7757 -16.7315 -16.5898 -16.5714  -7.4869  -7.4781  -7.2315  -7.1820
    -6.6991  -6.6704  -6.5165  -6.4892  -2.4470  -2.4376  -2.0039  -1.9918
     4.8177   5.3600   5.5499   6.0157

     occupation numbers 
     1.0000   1.0000   1.0000   1.0000   1.0000   1.0000   1.0000   1.0000
     1.0000   1.0000   1.0000   1.0000   1.0000   1.0000   1.0000   1.0000
     0.0000   0.0000   0.0000   0.0000

          k = 0.1429 0.1429 0.1429 (  7373 PWs)   bands (ev):

   -17.0369 -16.5952 -16.5391 -16.4920  -7.5281  -7.5209  -7.3798  -6.7753
    -6.7429  -6.6824  -6.5603  -6.4249  -2.3564  -2.3395  -2.0838  -1.8707
     2.8681   5.1171   5.5155   5.6294

     occupation numbers 
     1.0000   1.0000   1.0000   1.0000   1.0000   1.0000   1.0000   1.0000
     1.0000   1.0000   1.0000   1.0000   1.0000   1.0000   1.0000   1.0000
     0.0000   0.0000   0.0000   0.0000

          k = 0.1429 0.1429 0.2857 (  7389 PWs)   bands (ev):

   -16.9692 -16.6553 -16.5414 -16.5003  -7.5251  -7.4946  -7.3043  -6.8547
    -6.7790  -6.7060  -6.5624  -6.4290  -2.4201  -2.3814  -2.0525  -1.9194
     3.3495   5.1264   5.7906   6.0440

     occupation numbers 
     1.0000   1.0000   1.0000   1.0000   1.0000   1.0000   1.0000   1.0000
     1.0000   1.0000   1.0000   1.0000   1.0000   1.0000   1.0000   1.0000
     0.0000   0.0000   0.0000   0.0000

          k = 0.1429 0.1429 0.4286 (  7383 PWs)   bands (ev):

   -16.8696 -16.7569 -16.5287 -16.5133  -7.5081  -7.4894  -7.1848  -7.0251
    -6.7592  -6.7112  -6.5358  -6.4742  -2.4470  -2.4269  -2.0198  -1.9750
     4.0223   4.7126   6.1974   6.4768

     occupation numbers 
     1.0000   1.0000   1.0000   1.0000   1.0000   1.0000   1.0000   1.0000
     1.0000   1.0000   1.0000   1.0000   1.0000   1.0000   1.0000   1.0000
     0.0000   0.0000   0.0000   0.0000

          k = 0.1429 0.2857 0.2857 (  7400 PWs)   bands (ev):

   -16.9102 -16.6681 -16.5691 -16.5188  -7.5293  -7.4954  -7.3014  -6.9822
    -6.7654  -6.6775  -6.5337  -6.4133  -2.4407  -2.3895  -2.0319  -1.9496
     3.7508   5.3037   5.8166   6.3525

     occupation numbers 
     1.0000   1.0000   1.0000   1.0000   1.0000   1.0000   1.0000   1.0000
     1.0000   1.0000   1.0000   1.0000   1.0000   1.0000   1.0000   1.0000
     0.0000   0.0000   0.0000   0.0000

          k = 0.1429 0.2857 0.4286 (  7389 PWs)   bands (ev):

   -16.8251 -16.7333 -16.5654 -16.5425  -7.5241  -7.5088  -7.2484  -7.1322
    -6.7203  -6.6755  -6.4880  -6.4358  -2.4355  -2.4117  -2.0112  -1.9840
     4.3453   5.0068   5.9529   6.4041

     occupation numbers 
     1.0000   1.0000   1.0000   1.0000   1.0000   1.0000   1.0000   1.0000
     1.0000   1.0000   1.0000   1.0000   1.0000   1.0000   1.0000   1.0000
     0.0000   0.0000   0.0000   0.0000

          k = 0.1429 0.4286 0.4286 (  7388 PWs)   bands (ev):

   -16.7657 -16.7237 -16.5962 -16.5791  -7.5202  -7.5097  -7.3027  -7.2561
    -6.6374  -6.6088  -6.4827  -6.4525  -2.4157  -2.4041  -2.0052  -1.9958
     4.8293   5.3380   5.5105   5.9144

     occupation numbers 
     1.0000   1.0000   1.0000   1.0000   1.0000   1.0000   1.0000   1.0000
     1.0000   1.0000   1.0000   1.0000   1.0000   1.0000   1.0000   1.0000
     0.0000   0.0000   0.0000   0.0000

          k = 0.2857 0.2857 0.2857 (  7388 PWs)   bands (ev):

   -16.8598 -16.6688 -16.5916 -16.5431  -7.5531  -7.5253  -7.3564  -7.1293
    -6.6945  -6.6079  -6.4933  -6.3802  -2.4239  -2.3648  -2.0185  -1.9725
     4.0590   5.3845   5.9770   6.0349

     occupation numbers 
     1.0000   1.0000   1.0000   1.0000   1.0000   1.0000   1.0000   1.0000
     1.0000   1.0000   1.0000   1.0000   1.0000   1.0000   1.0000   1.0000
     0.0000   0.0000   0.0000   0.0000

          k = 0.2857 0.2857 0.4286 (  7374 PWs)   bands (ev):

   -16.7878 -16.7131 -16.5910 -16.5689  -7.5615  -7.5493  -7.3629  -7.2762
    -6.6149  -6.5661  -6.4496  -6.3935  -2.3871  -2.3594  -2.0112  -1.9975
     4.5428   5.1197   5.8218   5.9919

     occupation numbers 
     1.0000   1.0000   1.0000   1.0000   1.0000   1.0000   1.0000   1.0000
     1.0000   1.0000   1.0000   1.0000   1.0000   1.0000   1.0000   1.0000
     0.0000   0.0000   0.0000   0.0000

          k = 0.2857 0.4286 0.4286 (  7387 PWs)   bands (ev):

   -16.7382 -16.7032 -16.6151 -16.6000  -7.5765  -7.5700  -7.4342  -7.3976
    -6.5251  -6.4919  -6.4235  -6.3882  -2.3322  -2.3186  -2.0190  -2.0160
     4.8821   5.2852   5.4008   5.6208

     occupation numbers 
     1.0000   1.0000   1.0000   1.0000   1.0000   1.0000   1.0000   1.0000
     1.0000   1.0000   1.0000   1.0000   1.0000   1.0000   1.0000   1.0000
     0.0000   0.0000   0.0000   0.0000

          k = 0.4286 0.4286 0.4286 (  7409 PWs)   bands (ev):

   -16.7017 -16.6822 -16.6388 -16.6272  -7.6025  -7.5994  -7.5298  -7.5120
    -6.4356  -6.4035  -6.3938  -6.3610  -2.2362  -2.2278  -2.0575  -2.0555
     5.0198   5.2383   5.2881   5.2935

     occupation numbers 
     1.0000   1.0000   1.0000   1.0000   1.0000   1.0000   1.0000   1.0000
     1.0000   1.0000   1.0000   1.0000   1.0000   1.0000   1.0000   1.0000
     0.0000   0.0000   0.0000   0.0000

          k = 0.0000 0.2857 0.1429 (  7377 PWs)   bands (ev):

   -16.9901 -16.6570 -16.5269 -16.4920  -7.5202  -7.4914  -7.3086  -6.8598
    -6.7232  -6.6721  -6.6034  -6.4575  -2.4058  -2.3775  -2.0658  -1.9070
     3.2073   5.0259   5.7526   5.9206

     occupation numbers 
     1.0000   1.0000   1.0000   1.0000   1.0000   1.0000   1.0000   1.0000
     1.0000   1.0000   1.0000   1.0000   1.0000   1.0000   1.0000   1.0000
     0.0000   0.0000   0.0000   0.0000

          k = 0.0000 0.4286 0.1429 (  7375 PWs)   bands (ev):

   -16.8858 -16.7668 -16.5150 -16.5018  -7.4939  -7.4755  -7.1688  -7.0053
    -6.7320  -6.6777  -6.5964  -6.5185  -2.4495  -2.4335  -2.0254  -1.9717
     3.9089   4.6055   6.2332   6.3560

     occupation numbers 
     1.0000   1.0000   1.0000   1.0000   1.0000   1.0000   1.0000   1.0000
     1.0000   1.0000   1.0000   1.0000   1.0000   1.0000   1.0000   1.0000
     0.0000   0.0000   0.0000   0.0000

          k = 0.0000 0.4286 0.2857 (  7405 PWs)   bands (ev):

   -16.8386 -16.7416 -16.5565 -16.5321  -7.4940  -7.4748  -7.2175  -7.0908
    -6.7281  -6.6631  -6.5575  -6.4896  -2.4524  -2.4319  -2.0158  -1.9807
     4.2705   4.9270   6.1028   6.5530

     occupation numbers 
     1.0000   1.0000   1.0000   1.0000   1.0000   1.0000   1.0000   1.0000
     1.0000   1.0000   1.0000   1.0000   1.0000   1.0000   1.0000   1.0000
     0.0000   0.0000   0.0000   0.0000

          k =-0.1429 0.4286 0.2857 (  7389 PWs)   bands (ev):

   -16.8251 -16.7333 -16.5654 -16.5425  -7.5215  -7.5011  -7.2630  -7.1454
    -6.6990  -6.6457  -6.5093  -6.4484  -2.4353  -2.4102  -2.0124  -1.9842
     4.3383   4.9780   6.0545   6.4628

     occupation numbers 
     1.0000   1.0000   1.0000   1.0000   1.0000   1.0000   1.0000   1.0000
     1.0000   1.0000   1.0000   1.0000   1.0000   1.0000   1.0000   1.0000
     0.0000   0.0000   0.0000   0.0000

     the Fermi energy is    -0.0922 ev

!    total energy              =     -96.21930448 Ry
     estimated scf accuracy    <          3.5E-10 Ry
     smearing contrib. (-TS)   =       0.00000000 Ry
     internal energy E=F+TS    =     -96.21930448 Ry

     The total energy is F=E-TS. E is the sum of the following terms:
     one-electron contribution =     -59.36103033 Ry
     hartree contribution      =      38.95066530 Ry
     xc contribution           =     -31.46553885 Ry
     ewald contribution        =     -44.34340060 Ry

     convergence has been achieved in  17 iterations

     Forces acting on atoms (cartesian axes, Ry/au):

     atom    1 type  2   force =     0.01167391    0.01167391    0.01167391
     atom    2 type  2   force =    -0.01167391   -0.01167391    0.01167391
     atom    3 type  2   force =    -0.01167391    0.01167391   -0.01167391
     atom    4 type  2   force =     0.01167391   -0.01167391   -0.01167391
     atom    5 type  1   force =    -0.02586747    0.00036775    0.01453762
     atom    6 type  1   force =     0.02586747   -0.00036775    0.01453762
     atom    7 type  1   force =     0.02586747    0.00036775   -0.01453762
     atom    8 type  1   force =    -0.02586747   -0.00036775   -0.01453762
     atom    9 type  1   force =     0.01453762   -0.02586747    0.00036775
     atom   10 type  1   force =     0.01453762    0.02586747   -0.00036775
     atom   11 type  1   force =    -0.01453762    0.02586747    0.00036775
     atom   12 type  1   force =    -0.01453762   -0.02586747   -0.00036775
     atom   13 type  1   force =     0.00036775    0.01453762   -0.02586747
     atom   14 type  1   force =    -0.00036775    0.01453762    0.02586747
     atom   15 type  1   force =     0.00036775   -0.01453762    0.02586747
     atom   16 type  1   force =    -0.00036775   -0.01453762   -0.02586747
     The non-local contrib.  to forces
     atom    1 type  2   force =     0.69821108    0.69821108    0.69821108
     atom    2 type  2   force =    -0.69821108   -0.69821108    0.69821108
     atom    3 type  2   force =    -0.69821108    0.69821108   -0.69821108
     atom    4 type  2   force =     0.69821108   -0.69821108   -0.69821108
     atom    5 type  1   force =    -0.07758590   -0.01305482    0.04029922
     atom    6 type  1   force =     0.07758590    0.01305482    0.04029922
     atom    7 type  1   force =     0.07758590   -0.01305482   -0.04029922
     atom    8 type  1   force =    -0.07758590    0.01305482   -0.04029922
     atom    9 type  1   force =     0.04029922   -0.07758590   -0.01305482
     atom   10 type  1   force =     0.04029922    0.07758590    0.01305482
     atom   11 type  1   force =    -0.04029922    0.07758590   -0.01305482
     atom   12 type  1   force =    -0.04029922   -0.07758590    0.01305482
     atom   13 type  1   force =    -0.01305482    0.04029922   -0.07758590
     atom   14 type  1   force =     0.01305482    0.04029922    0.07758590
     atom   15 type  1   force =    -0.01305482   -0.04029922    0.07758590
     atom   16 type  1   force =     0.01305482   -0.04029922   -0.07758590
     The ionic contribution  to forces
     atom    1 type  2   force =    -1.07294925   -1.07294925   -1.07294925
     atom    2 type  2   force =     1.07294925    1.07294925   -1.07294925
     atom    3 type  2   force =     1.07294925   -1.07294925    1.07294925
     atom    4 type  2   force =    -1.07294925    1.07294925    1.07294925
     atom    5 type  1   force =     2.08551745    0.37864597   -0.93862910
     atom    6 type  1   force =    -2.08551745   -0.37864597   -0.93862910
     atom    7 type  1   force =    -2.08551745    0.37864597    0.93862910
     atom    8 type  1   force =     2.08551745   -0.37864597    0.93862910
     atom    9 type  1   force =    -0.93862910    2.08551745    0.37864597
     atom   10 type  1   force =    -0.93862910   -2.08551745   -0.37864597
     atom   11 type  1   force =     0.93862910   -2.08551745    0.37864597
     atom   12 type  1   force =     0.93862910    2.08551745   -0.37864597
     atom   13 type  1   force =     0.37864597   -0.93862910    2.08551745
     atom   14 type  1   force =    -0.37864597   -0.93862910   -2.08551745
     atom   15 type  1   force =     0.37864597    0.93862910   -2.08551745
     atom   16 type  1   force =    -0.37864597    0.93862910    2.08551745
     The local contribution  to forces
     atom    1 type  2   force =     0.39650432    0.39650432    0.39650432
     atom    2 type  2   force =    -0.39650432   -0.39650432    0.39650432
     atom    3 type  2   force =    -0.39650432    0.39650432   -0.39650432
     atom    4 type  2   force =     0.39650432   -0.39650432   -0.39650432
     atom    5 type  1   force =    -2.03379703   -0.36522299    0.91286672
     atom    6 type  1   force =     2.03379703    0.36522299    0.91286672
     atom    7 type  1   force =     2.03379703   -0.36522299   -0.91286672
     atom    8 type  1   force =    -2.03379703    0.36522299   -0.91286672
     atom    9 type  1   force =     0.91286672   -2.03379703   -0.36522299
     atom   10 type  1   force =     0.91286672    2.03379703    0.36522299
     atom   11 type  1   force =    -0.91286672    2.03379703   -0.36522299
     atom   12 type  1   force =    -0.91286672   -2.03379703    0.36522299
     atom   13 type  1   force =    -0.36522299    0.91286672   -2.03379703
     atom   14 type  1   force =     0.36522299    0.91286672    2.03379703
     atom   15 type  1   force =    -0.36522299   -0.91286672    2.03379703
     atom   16 type  1   force =     0.36522299   -0.91286672   -2.03379703
     The core correction contribution to forces
     atom    1 type  2   force =    -0.01009030   -0.01009030   -0.01009030
     atom    2 type  2   force =     0.01009030    0.01009030   -0.01009030
     atom    3 type  2   force =     0.01009030   -0.01009030    0.01009030
     atom    4 type  2   force =    -0.01009030    0.01009030    0.01009030
     atom    5 type  1   force =     0.00000000    0.00000000    0.00000000
     atom    6 type  1   force =     0.00000000    0.00000000    0.00000000
     atom    7 type  1   force =     0.00000000    0.00000000    0.00000000
     atom    8 type  1   force =     0.00000000    0.00000000    0.00000000
     atom    9 type  1   force =     0.00000000    0.00000000    0.00000000
     atom   10 type  1   force =     0.00000000    0.00000000    0.00000000
     atom   11 type  1   force =     0.00000000    0.00000000    0.00000000
     atom   12 type  1   force =     0.00000000    0.00000000    0.00000000
     atom   13 type  1   force =     0.00000000    0.00000000    0.00000000
     atom   14 type  1   force =     0.00000000    0.00000000    0.00000000
     atom   15 type  1   force =     0.00000000    0.00000000    0.00000000
     atom   16 type  1   force =     0.00000000    0.00000000    0.00000000
     The Hubbard contrib.    to forces
     atom    1 type  2   force =     0.00000000    0.00000000    0.00000000
     atom    2 type  2   force =     0.00000000    0.00000000    0.00000000
     atom    3 type  2   force =     0.00000000    0.00000000    0.00000000
     atom    4 type  2   force =     0.00000000    0.00000000    0.00000000
     atom    5 type  1   force =     0.00000000    0.00000000    0.00000000
     atom    6 type  1   force =     0.00000000    0.00000000    0.00000000
     atom    7 type  1   force =     0.00000000    0.00000000    0.00000000
     atom    8 type  1   force =     0.00000000    0.00000000    0.00000000
     atom    9 type  1   force =     0.00000000    0.00000000    0.00000000
     atom   10 type  1   force =     0.00000000    0.00000000    0.00000000
     atom   11 type  1   force =     0.00000000    0.00000000    0.00000000
     atom   12 type  1   force =     0.00000000    0.00000000    0.00000000
     atom   13 type  1   force =     0.00000000    0.00000000    0.00000000
     atom   14 type  1   force =     0.00000000    0.00000000    0.00000000
     atom   15 type  1   force =     0.00000000    0.00000000    0.00000000
     atom   16 type  1   force =     0.00000000    0.00000000    0.00000000
     The SCF correction term to forces
     atom    1 type  2   force =    -0.00000194   -0.00000194   -0.00000194
     atom    2 type  2   force =     0.00000194    0.00000194   -0.00000194
     atom    3 type  2   force =     0.00000194   -0.00000194    0.00000194
     atom    4 type  2   force =    -0.00000194    0.00000194    0.00000194
     atom    5 type  1   force =    -0.00000198   -0.00000041    0.00000077
     atom    6 type  1   force =     0.00000198    0.00000041    0.00000077
     atom    7 type  1   force =     0.00000198   -0.00000041   -0.00000077
     atom    8 type  1   force =    -0.00000198    0.00000041   -0.00000077
     atom    9 type  1   force =     0.00000077   -0.00000198   -0.00000041
     atom   10 type  1   force =     0.00000077    0.00000198    0.00000041
     atom   11 type  1   force =    -0.00000077    0.00000198   -0.00000041
     atom   12 type  1   force =    -0.00000077   -0.00000198    0.00000041
     atom   13 type  1   force =    -0.00000041    0.00000077   -0.00000198
     atom   14 type  1   force =     0.00000041    0.00000077    0.00000198
     atom   15 type  1   force =    -0.00000041   -0.00000077    0.00000198
     atom   16 type  1   force =     0.00000041   -0.00000077   -0.00000198

     Total force =     0.110465     Total SCF correction =     0.000010


     Computing stress (Cartesian axis) and pressure

          total   stress  (Ry/bohr**3)                   (kbar)     P=      -37.92
  -0.00025776   0.00000000   0.00000000          -37.92        0.00        0.00
   0.00000000  -0.00025776   0.00000000            0.00      -37.92        0.00
   0.00000000   0.00000000  -0.00025776            0.00        0.00      -37.92

     kinetic stress (kbar)   6290.06      0.00      0.00
                                0.00   6290.06      0.00
                                0.00      0.00   6290.06

     local   stress (kbar)  -4525.84     -0.00     -0.00
                               -0.00  -4525.84      0.00
                               -0.00      0.00  -4525.84

     nonloc. stress (kbar)    -16.51      0.00      0.00
                                0.00    -16.51      0.00
                                0.00      0.00    -16.51

     hartree stress (kbar)   2030.39     -0.00     -0.00
                               -0.00   2030.39     -0.00
                               -0.00     -0.00   2030.39

     exc-cor stress (kbar)  -1076.71      0.00      0.00
                                0.00  -1076.71     -0.00
                                0.00     -0.00  -1076.71

     corecor stress (kbar)   -427.82     -0.00     -0.00
                               -0.00   -427.82      0.00
                               -0.00      0.00   -427.82

     ewald   stress (kbar)  -2311.49     -0.00      0.00
                               -0.00  -2311.49      0.00
                                0.00      0.00  -2311.49

     hubbard stress (kbar)      0.00      0.00      0.00
                                0.00      0.00      0.00
                                0.00      0.00      0.00

     DFT-D   stress (kbar)      0.00      0.00      0.00
                                0.00      0.00      0.00
                                0.00      0.00      0.00

     XDM     stress (kbar)      0.00      0.00      0.00
                                0.00      0.00      0.00
                                0.00      0.00      0.00

     dft-nl  stress (kbar)      0.00      0.00      0.00
                                0.00      0.00      0.00
                                0.00      0.00      0.00

     TS-vdW  stress (kbar)      0.00      0.00      0.00
                                0.00      0.00      0.00
                                0.00      0.00      0.00

     MDB     stress (kbar)      0.00      0.00      0.00
                                0.00      0.00      0.00
                                0.00      0.00      0.00

     3D-RISM stress (kbar)      0.00      0.00      0.00
                                0.00      0.00      0.00
                                0.00      0.00      0.00


     BFGS Geometry Optimization
     Energy error            =      0.0E+00 Ry
     Gradient error          =      2.6E-02 Ry/Bohr
     Cell gradient error     =      3.8E+01 kbar

     number of scf cycles    =   1
     number of bfgs steps    =   0

     enthalpy           new  =     -96.2193044752 Ry

     new trust radius        =       0.0395285388 bohr
WARNING! With ibrav=0, cell_dofree='ibrav' has no effect. 
     new conv_thr            =       0.0000000032 Ry

     new unit-cell volume =    922.61362 a.u.^3 (   136.71723 Ang^3 )
     density =      0.82740 g/cm^3

CELL_PARAMETERS (angstrom)
   5.151587568   0.000000000   0.000000000
   0.000000000   5.151587568   0.000000000
   0.000000000   0.000000000   5.151587568

ATOMIC_POSITIONS (crystal)
N             0.2121914301        0.2121914301        0.2121914301
N             0.2878085699        0.7878085699        0.7121914301
N             0.7878085699        0.7121914301        0.2878085699
N             0.7121914301        0.2878085699        0.7878085699
H             0.3873599856        0.2430375320        0.1254836988
H             0.1126400144        0.7569624680        0.6254836988
H             0.6126400144        0.7430375320        0.3745163012
H             0.8873599856        0.2569624680        0.8745163012
H             0.1254836988        0.3873599856        0.2430375320
H             0.6254836988        0.1126400144        0.7569624680
H             0.3745163012        0.6126400144        0.7430375320
H             0.8745163012        0.8873599856        0.2569624680
H             0.2430375320        0.1254836988        0.3873599856
H             0.7569624680        0.6254836988        0.1126400144
H             0.7430375320        0.3745163012        0.6126400144
H             0.2569624680        0.8745163012        0.8873599856



     Writing config-only to output data dir ./out/AC_Ph_1.save/
     NEW-OLD atomic charge density approx. for the potential

     Check: negative core charge=   -0.000002
     extrapolated charge   31.37331, renormalised to   32.00000

     total cpu time spent up to now is       65.5 secs

     Self-consistent Calculation

     iteration #  1     ecut=    60.00 Ry     beta= 0.40
     Davidson diagonalization with overlap

---- Real-time Memory Report at c_bands before calling an iterative solver
            56 MiB given to the printing process from OS
             0 MiB allocation reported by mallinfo(arena+hblkhd)
         22873 MiB available memory on the node where the printing process lives
------------------
     ethr =  1.00E-06,  avg # of iterations =  7.0

     total cpu time spent up to now is       72.4 secs

     total energy              =     -96.17183062 Ry
     estimated scf accuracy    <       0.06618062 Ry

     iteration #  2     ecut=    60.00 Ry     beta= 0.40
     Davidson diagonalization with overlap

---- Real-time Memory Report at c_bands before calling an iterative solver
            56 MiB given to the printing process from OS
             0 MiB allocation reported by mallinfo(arena+hblkhd)
         22873 MiB available memory on the node where the printing process lives
------------------
     ethr =  2.07E-04,  avg # of iterations =  2.0

     total cpu time spent up to now is       75.9 secs

     total energy              =     -96.22668336 Ry
     estimated scf accuracy    <       0.04156047 Ry

     iteration #  3     ecut=    60.00 Ry     beta= 0.40
     Davidson diagonalization with overlap

---- Real-time Memory Report at c_bands before calling an iterative solver
            56 MiB given to the printing process from OS
             0 MiB allocation reported by mallinfo(arena+hblkhd)
         22873 MiB available memory on the node where the printing process lives
------------------
     ethr =  1.30E-04,  avg # of iterations =  1.0

     total cpu time spent up to now is       78.3 secs

     total energy              =     -96.22170209 Ry
     estimated scf accuracy    <       0.01124555 Ry

     iteration #  4     ecut=    60.00 Ry     beta= 0.40
     Davidson diagonalization with overlap

---- Real-time Memory Report at c_bands before calling an iterative solver
            56 MiB given to the printing process from OS
             0 MiB allocation reported by mallinfo(arena+hblkhd)
         22873 MiB available memory on the node where the printing process lives
------------------
     ethr =  3.51E-05,  avg # of iterations =  2.0

     total cpu time spent up to now is       81.6 secs

     total energy              =     -96.22559143 Ry
     estimated scf accuracy    <       0.00131423 Ry

     iteration #  5     ecut=    60.00 Ry     beta= 0.40
     Davidson diagonalization with overlap

---- Real-time Memory Report at c_bands before calling an iterative solver
            56 MiB given to the printing process from OS
             0 MiB allocation reported by mallinfo(arena+hblkhd)
         22873 MiB available memory on the node where the printing process lives
------------------
     ethr =  4.11E-06,  avg # of iterations =  1.0

     total cpu time spent up to now is       84.1 secs

     total energy              =     -96.22535819 Ry
     estimated scf accuracy    <       0.00056934 Ry

     iteration #  6     ecut=    60.00 Ry     beta= 0.40
     Davidson diagonalization with overlap

---- Real-time Memory Report at c_bands before calling an iterative solver
            56 MiB given to the printing process from OS
             0 MiB allocation reported by mallinfo(arena+hblkhd)
         22873 MiB available memory on the node where the printing process lives
------------------
     ethr =  1.78E-06,  avg # of iterations =  2.3

     total cpu time spent up to now is       87.2 secs

     total energy              =     -96.22546512 Ry
     estimated scf accuracy    <       0.00000087 Ry

     iteration #  7     ecut=    60.00 Ry     beta= 0.40
     Davidson diagonalization with overlap

---- Real-time Memory Report at c_bands before calling an iterative solver
            56 MiB given to the printing process from OS
             0 MiB allocation reported by mallinfo(arena+hblkhd)
         22873 MiB available memory on the node where the printing process lives
------------------
     ethr =  2.73E-09,  avg # of iterations =  3.4

     total cpu time spent up to now is       91.4 secs

     total energy              =     -96.22546694 Ry
     estimated scf accuracy    <       0.00000305 Ry

     iteration #  8     ecut=    60.00 Ry     beta= 0.40
     Davidson diagonalization with overlap

---- Real-time Memory Report at c_bands before calling an iterative solver
            56 MiB given to the printing process from OS
             0 MiB allocation reported by mallinfo(arena+hblkhd)
         22873 MiB available memory on the node where the printing process lives
------------------
     ethr =  2.73E-09,  avg # of iterations =  1.0

     total cpu time spent up to now is       93.8 secs

     total energy              =     -96.22546637 Ry
     estimated scf accuracy    <       0.00000138 Ry

     iteration #  9     ecut=    60.00 Ry     beta= 0.40
     Davidson diagonalization with overlap

---- Real-time Memory Report at c_bands before calling an iterative solver
            56 MiB given to the printing process from OS
             0 MiB allocation reported by mallinfo(arena+hblkhd)
         22873 MiB available memory on the node where the printing process lives
------------------
     ethr =  2.73E-09,  avg # of iterations =  2.0

     total cpu time spent up to now is       97.0 secs

     total energy              =     -96.22546662 Ry
     estimated scf accuracy    <          5.4E-09 Ry

     iteration # 10     ecut=    60.00 Ry     beta= 0.40
     Davidson diagonalization with overlap

---- Real-time Memory Report at c_bands before calling an iterative solver
            56 MiB given to the printing process from OS
             0 MiB allocation reported by mallinfo(arena+hblkhd)
         22872 MiB available memory on the node where the printing process lives
------------------
     ethr =  1.70E-11,  avg # of iterations =  2.1

     total cpu time spent up to now is      100.4 secs

     total energy              =     -96.22546662 Ry
     estimated scf accuracy    <          3.7E-09 Ry

     iteration # 11     ecut=    60.00 Ry     beta= 0.40
     Davidson diagonalization with overlap

---- Real-time Memory Report at c_bands before calling an iterative solver
            57 MiB given to the printing process from OS
             0 MiB allocation reported by mallinfo(arena+hblkhd)
         22872 MiB available memory on the node where the printing process lives
------------------
     ethr =  1.14E-11,  avg # of iterations =  2.0

     total cpu time spent up to now is      103.3 secs

     End of self-consistent calculation

          k = 0.0000 0.0000 0.0000 (  7249 PWs)   bands (ev):

   -17.2972 -16.7043 -16.7043 -16.7043  -7.6530  -7.6530  -7.6530  -6.8814
    -6.8814  -6.6400  -6.6400  -6.6400  -2.1242  -2.1242  -2.1242  -1.7561
     2.5146   5.3237   5.3237   5.3237

     occupation numbers 
     1.0000   1.0000   1.0000   1.0000   1.0000   1.0000   1.0000   1.0000
     1.0000   1.0000   1.0000   1.0000   1.0000   1.0000   1.0000   1.0000
     0.0000   0.0000   0.0000   0.0000

          k = 0.0000 0.0000 0.1438 (  7336 PWs)   bands (ev):

   -17.2712 -16.7553 -16.7020 -16.6839  -7.6694  -7.6414  -7.5774  -6.9084
    -6.8675  -6.7120  -6.6716  -6.6104  -2.2088  -2.1765  -2.0584  -1.7794
     2.7180   5.2383   5.4999   5.5827

     occupation numbers 
     1.0000   1.0000   1.0000   1.0000   1.0000   1.0000   1.0000   1.0000
     1.0000   1.0000   1.0000   1.0000   1.0000   1.0000   1.0000   1.0000
     0.0000   0.0000   0.0000   0.0000

          k = 0.0000 0.0000 0.2876 (  7372 PWs)   bands (ev):

   -17.1976 -16.8450 -16.6959 -16.6792  -7.6440  -7.6150  -7.4432  -6.9843
    -6.8277  -6.7972  -6.7521  -6.6310  -2.2937  -2.2788  -2.0118  -1.8407
     3.2610   5.1280   5.9609   6.0160

     occupation numbers 
     1.0000   1.0000   1.0000   1.0000   1.0000   1.0000   1.0000   1.0000
     1.0000   1.0000   1.0000   1.0000   1.0000   1.0000   1.0000   1.0000
     0.0000   0.0000   0.0000   0.0000

          k = 0.0000 0.0000 0.4314 (  7388 PWs)   bands (ev):

   -17.0886 -16.9633 -16.6882 -16.6818  -7.6084  -7.5964  -7.2725  -7.1068
    -6.8526  -6.8384  -6.7597  -6.6890  -2.3498  -2.3482  -1.9688  -1.9119
     3.9880   4.6944   6.4468   6.4496

     occupation numbers 
     1.0000   1.0000   1.0000   1.0000   1.0000   1.0000   1.0000   1.0000
     1.0000   1.0000   1.0000   1.0000   1.0000   1.0000   1.0000   1.0000
     0.0000   0.0000   0.0000   0.0000

          k = 0.0000 0.1438 0.1438 (  7369 PWs)   bands (ev):

   -17.2463 -16.7716 -16.7165 -16.6800  -7.6549  -7.6431  -7.5334  -6.9166
    -6.8776  -6.7444  -6.7152  -6.5900  -2.2374  -2.2259  -2.0333  -1.8005
     2.9068   5.2880   5.6042   5.7640

     occupation numbers 
     1.0000   1.0000   1.0000   1.0000   1.0000   1.0000   1.0000   1.0000
     1.0000   1.0000   1.0000   1.0000   1.0000   1.0000   1.0000   1.0000
     0.0000   0.0000   0.0000   0.0000

          k = 0.0000 0.1438 0.2876 (  7377 PWs)   bands (ev):

   -17.1757 -16.8433 -16.7165 -16.6829  -7.6355  -7.6206  -7.4248  -6.9654
    -6.9118  -6.8249  -6.7321  -6.5980  -2.3070  -2.2966  -1.9994  -1.8545
     3.4187   5.2549   5.9260   6.2135

     occupation numbers 
     1.0000   1.0000   1.0000   1.0000   1.0000   1.0000   1.0000   1.0000
     1.0000   1.0000   1.0000   1.0000   1.0000   1.0000   1.0000   1.0000
     0.0000   0.0000   0.0000   0.0000

          k = 0.0000 0.1438 0.4314 (  7375 PWs)   bands (ev):

   -17.0714 -16.9527 -16.7051 -16.6924  -7.6145  -7.6042  -7.2720  -7.1021
    -6.9253  -6.8849  -6.6988  -6.6420  -2.3538  -2.3462  -1.9647  -1.9163
     4.1208   4.8242   6.3862   6.6065

     occupation numbers 
     1.0000   1.0000   1.0000   1.0000   1.0000   1.0000   1.0000   1.0000
     1.0000   1.0000   1.0000   1.0000   1.0000   1.0000   1.0000   1.0000
     0.0000   0.0000   0.0000   0.0000

          k = 0.0000 0.2876 0.2876 (  7385 PWs)   bands (ev):

   -17.1139 -16.8573 -16.7501 -16.6984  -7.6272  -7.6063  -7.3969  -7.0590
    -6.9310  -6.8310  -6.7125  -6.5921  -2.3477  -2.3121  -1.9813  -1.8877
     3.8570   5.4688   5.9649   6.5857

     occupation numbers 
     1.0000   1.0000   1.0000   1.0000   1.0000   1.0000   1.0000   1.0000
     1.0000   1.0000   1.0000   1.0000   1.0000   1.0000   1.0000   1.0000
     0.0000   0.0000   0.0000   0.0000

          k = 0.0000 0.2876 0.4314 (  7405 PWs)   bands (ev):

   -17.0243 -16.9272 -16.7468 -16.7226  -7.6172  -7.6094  -7.3122  -7.1872
    -6.9196  -6.8725  -6.6595  -6.6127  -2.3584  -2.3418  -1.9582  -1.9265
     4.4928   5.1773   6.1956   6.6860

     occupation numbers 
     1.0000   1.0000   1.0000   1.0000   1.0000   1.0000   1.0000   1.0000
     1.0000   1.0000   1.0000   1.0000   1.0000   1.0000   1.0000   1.0000
     0.0000   0.0000   0.0000   0.0000

          k = 0.0000 0.4314 0.4314 (  7383 PWs)   bands (ev):

   -16.9611 -16.9164 -16.7807 -16.7620  -7.6063  -7.5978  -7.3586  -7.3106
    -6.8405  -6.8129  -6.6637  -6.6378  -2.3528  -2.3438  -1.9508  -1.9391
     5.0318   5.5426   5.8217   6.2580

     occupation numbers 
     1.0000   1.0000   1.0000   1.0000   1.0000   1.0000   1.0000   1.0000
     1.0000   1.0000   1.0000   1.0000   1.0000   1.0000   1.0000   1.0000
     0.0000   0.0000   0.0000   0.0000

          k = 0.1438 0.1438 0.1438 (  7373 PWs)   bands (ev):

   -17.2224 -16.7819 -16.7282 -16.6831  -7.6489  -7.6391  -7.5038  -6.9145
    -6.8851  -6.8233  -6.7030  -6.5750  -2.2676  -2.2505  -2.0155  -1.8193
     3.0813   5.3383   5.7466   5.8893

     occupation numbers 
     1.0000   1.0000   1.0000   1.0000   1.0000   1.0000   1.0000   1.0000
     1.0000   1.0000   1.0000   1.0000   1.0000   1.0000   1.0000   1.0000
     0.0000   0.0000   0.0000   0.0000

          k = 0.1438 0.1438 0.2876 (  7389 PWs)   bands (ev):

   -17.1547 -16.8415 -16.7307 -16.6914  -7.6449  -7.6129  -7.4298  -6.9917
    -6.9178  -6.8489  -6.7064  -6.5797  -2.3282  -2.2910  -1.9896  -1.8662
     3.5606   5.3356   6.0335   6.2994

     occupation numbers 
     1.0000   1.0000   1.0000   1.0000   1.0000   1.0000   1.0000   1.0000
     1.0000   1.0000   1.0000   1.0000   1.0000   1.0000   1.0000   1.0000
     0.0000   0.0000   0.0000   0.0000

          k = 0.1438 0.1438 0.4314 (  7383 PWs)   bands (ev):

   -17.0553 -16.9428 -16.7186 -16.7039  -7.6269  -7.6077  -7.3135  -7.1579
    -6.8988  -6.8526  -6.6828  -6.6238  -2.3540  -2.3347  -1.9616  -1.9198
     4.2312   4.9186   6.4471   6.7176

     occupation numbers 
     1.0000   1.0000   1.0000   1.0000   1.0000   1.0000   1.0000   1.0000
     1.0000   1.0000   1.0000   1.0000   1.0000   1.0000   1.0000   1.0000
     0.0000   0.0000   0.0000   0.0000

          k = 0.1438 0.2876 0.2876 (  7400 PWs)   bands (ev):

   -17.0959 -16.8538 -16.7589 -16.7098  -7.6492  -7.6136  -7.4263  -7.1160
    -6.9044  -6.8216  -6.6790  -6.5647  -2.3476  -2.2987  -1.9725  -1.8957
     3.9631   5.5075   6.0635   6.6146

     occupation numbers 
     1.0000   1.0000   1.0000   1.0000   1.0000   1.0000   1.0000   1.0000
     1.0000   1.0000   1.0000   1.0000   1.0000   1.0000   1.0000   1.0000
     0.0000   0.0000   0.0000   0.0000

          k = 0.1438 0.2876 0.4314 (  7389 PWs)   bands (ev):

   -17.0108 -16.9191 -16.7554 -16.7330  -7.6432  -7.6272  -7.3748  -7.2621
    -6.8609  -6.8183  -6.6361  -6.5863  -2.3423  -2.3196  -1.9549  -1.9293
     4.5584   5.2153   6.2034   6.6549

     occupation numbers 
     1.0000   1.0000   1.0000   1.0000   1.0000   1.0000   1.0000   1.0000
     1.0000   1.0000   1.0000   1.0000   1.0000   1.0000   1.0000   1.0000
     0.0000   0.0000   0.0000   0.0000

          k = 0.1438 0.4314 0.4314 (  7388 PWs)   bands (ev):

   -16.9512 -16.9090 -16.7868 -16.7695  -7.6392  -7.6287  -7.4282  -7.3831
    -6.7802  -6.7530  -6.6310  -6.6023  -2.3228  -2.3117  -1.9504  -1.9413
     5.0461   5.5269   5.7814   6.1617

     occupation numbers 
     1.0000   1.0000   1.0000   1.0000   1.0000   1.0000   1.0000   1.0000
     1.0000   1.0000   1.0000   1.0000   1.0000   1.0000   1.0000   1.0000
     0.0000   0.0000   0.0000   0.0000

          k = 0.2876 0.2876 0.2876 (  7388 PWs)   bands (ev):

   -17.0455 -16.8545 -16.7810 -16.7341  -7.6730  -7.6428  -7.4799  -7.2596
    -6.8349  -6.7544  -6.6398  -6.5327  -2.3313  -2.2753  -1.9598  -1.9168
     4.2741   5.5903   6.2049   6.3258

     occupation numbers 
     1.0000   1.0000   1.0000   1.0000   1.0000   1.0000   1.0000   1.0000
     1.0000   1.0000   1.0000   1.0000   1.0000   1.0000   1.0000   1.0000
     0.0000   0.0000   0.0000   0.0000

          k = 0.2876 0.2876 0.4314 (  7374 PWs)   bands (ev):

   -16.9738 -16.8990 -16.7806 -16.7592  -7.6801  -7.6671  -7.4869  -7.4029
    -6.7580  -6.7120  -6.5989  -6.5454  -2.2959  -2.2697  -1.9532  -1.9403
     4.7606   5.3337   6.0739   6.2502

     occupation numbers 
     1.0000   1.0000   1.0000   1.0000   1.0000   1.0000   1.0000   1.0000
     1.0000   1.0000   1.0000   1.0000   1.0000   1.0000   1.0000   1.0000
     0.0000   0.0000   0.0000   0.0000

          k = 0.2876 0.4314 0.4314 (  7387 PWs)   bands (ev):

   -16.9243 -16.8892 -16.8048 -16.7899  -7.6947  -7.6881  -7.5569  -7.5214
    -6.6711  -6.6396  -6.5737  -6.5399  -2.2435  -2.2307  -1.9595  -1.9564
     5.1050   5.4893   5.6635   5.8688

     occupation numbers 
     1.0000   1.0000   1.0000   1.0000   1.0000   1.0000   1.0000   1.0000
     1.0000   1.0000   1.0000   1.0000   1.0000   1.0000   1.0000   1.0000
     0.0000   0.0000   0.0000   0.0000

          k = 0.4314 0.4314 0.4314 (  7409 PWs)   bands (ev):

   -16.8885 -16.8690 -16.8277 -16.8163  -7.7202  -7.7176  -7.6502  -7.6330
    -6.5846  -6.5536  -6.5451  -6.5134  -2.1535  -2.1456  -1.9916  -1.9898
     5.2485   5.4556   5.5321   5.5431

     occupation numbers 
     1.0000   1.0000   1.0000   1.0000   1.0000   1.0000   1.0000   1.0000
     1.0000   1.0000   1.0000   1.0000   1.0000   1.0000   1.0000   1.0000
     0.0000   0.0000   0.0000   0.0000

          k = 0.0000 0.2876 0.1438 (  7377 PWs)   bands (ev):

   -17.1757 -16.8433 -16.7165 -16.6829  -7.6390  -7.6105  -7.4349  -6.9972
    -6.8632  -6.8156  -6.7457  -6.6072  -2.3151  -2.2869  -2.0013  -1.8541
     3.4179   5.2352   5.9954   6.1754

     occupation numbers 
     1.0000   1.0000   1.0000   1.0000   1.0000   1.0000   1.0000   1.0000
     1.0000   1.0000   1.0000   1.0000   1.0000   1.0000   1.0000   1.0000
     0.0000   0.0000   0.0000   0.0000

          k = 0.0000 0.4314 0.1438 (  7375 PWs)   bands (ev):

   -17.0714 -16.9527 -16.7051 -16.6924  -7.6123  -7.5938  -7.2989  -7.1393
    -6.8715  -6.8185  -6.7428  -6.6672  -2.3569  -2.3412  -1.9664  -1.9162
     4.1162   4.8101   6.4800   6.5971

     occupation numbers 
     1.0000   1.0000   1.0000   1.0000   1.0000   1.0000   1.0000   1.0000
     1.0000   1.0000   1.0000   1.0000   1.0000   1.0000   1.0000   1.0000
     0.0000   0.0000   0.0000   0.0000

          k = 0.0000 0.4314 0.2876 (  7405 PWs)   bands (ev):

   -17.0243 -16.9272 -16.7468 -16.7226  -7.6130  -7.5937  -7.3456  -7.2224
    -6.8680  -6.8051  -6.7041  -6.6389  -2.3588  -2.3388  -1.9601  -1.9267
     4.4815   5.1345   6.3448   6.7847

     occupation numbers 
     1.0000   1.0000   1.0000   1.0000   1.0000   1.0000   1.0000   1.0000
     1.0000   1.0000   1.0000   1.0000   1.0000   1.0000   1.0000   1.0000
     0.0000   0.0000   0.0000   0.0000

          k =-0.1438 0.4314 0.2876 (  7389 PWs)   bands (ev):

   -17.0108 -16.9190 -16.7554 -16.7330  -7.6404  -7.6196  -7.3896  -7.2754
    -6.8398  -6.7889  -6.6569  -6.5988  -2.3422  -2.3181  -1.9560  -1.9294
     4.5512   5.1875   6.3036   6.7196

     occupation numbers 
     1.0000   1.0000   1.0000   1.0000   1.0000   1.0000   1.0000   1.0000
     1.0000   1.0000   1.0000   1.0000   1.0000   1.0000   1.0000   1.0000
     0.0000   0.0000   0.0000   0.0000

     the Fermi energy is     0.0091 ev

!    total energy              =     -96.22546662 Ry
     estimated scf accuracy    <          7.5E-11 Ry
     smearing contrib. (-TS)   =       0.00000000 Ry
     internal energy E=F+TS    =     -96.22546662 Ry

     The total energy is F=E-TS. E is the sum of the following terms:
     one-electron contribution =     -60.37638018 Ry
     hartree contribution      =      39.50644255 Ry
     xc contribution           =     -31.71505716 Ry
     ewald contribution        =     -43.64047183 Ry

     convergence has been achieved in  11 iterations

     Forces acting on atoms (cartesian axes, Ry/au):

     atom    1 type  2   force =    -0.00857002   -0.00857002   -0.00857002
     atom    2 type  2   force =     0.00857002    0.00857002   -0.00857002
     atom    3 type  2   force =     0.00857002   -0.00857002    0.00857002
     atom    4 type  2   force =    -0.00857002    0.00857002    0.00857002
     atom    5 type  1   force =     0.00704791    0.00526288   -0.00279323
     atom    6 type  1   force =    -0.00704791   -0.00526288   -0.00279323
     atom    7 type  1   force =    -0.00704791    0.00526288    0.00279323
     atom    8 type  1   force =     0.00704791   -0.00526288    0.00279323
     atom    9 type  1   force =    -0.00279323    0.00704791    0.00526288
     atom   10 type  1   force =    -0.00279323   -0.00704791   -0.00526288
     atom   11 type  1   force =     0.00279323   -0.00704791    0.00526288
     atom   12 type  1   force =     0.00279323    0.00704791   -0.00526288
     atom   13 type  1   force =     0.00526288   -0.00279323    0.00704791
     atom   14 type  1   force =    -0.00526288   -0.00279323   -0.00704791
     atom   15 type  1   force =     0.00526288    0.00279323   -0.00704791
     atom   16 type  1   force =    -0.00526288    0.00279323    0.00704791
     The non-local contrib.  to forces
     atom    1 type  2   force =     0.67851433    0.67851433    0.67851433
     atom    2 type  2   force =    -0.67851433   -0.67851433    0.67851433
     atom    3 type  2   force =    -0.67851433    0.67851433   -0.67851433
     atom    4 type  2   force =     0.67851433   -0.67851433   -0.67851433
     atom    5 type  1   force =    -0.08398428   -0.01396229    0.04419227
     atom    6 type  1   force =     0.08398428    0.01396229    0.04419227
     atom    7 type  1   force =     0.08398428   -0.01396229   -0.04419227
     atom    8 type  1   force =    -0.08398428    0.01396229   -0.04419227
     atom    9 type  1   force =     0.04419227   -0.08398428   -0.01396229
     atom   10 type  1   force =     0.04419227    0.08398428    0.01396229
     atom   11 type  1   force =    -0.04419227    0.08398428   -0.01396229
     atom   12 type  1   force =    -0.04419227   -0.08398428    0.01396229
     atom   13 type  1   force =    -0.01396229    0.04419227   -0.08398428
     atom   14 type  1   force =     0.01396229    0.04419227    0.08398428
     atom   15 type  1   force =    -0.01396229   -0.04419227    0.08398428
     atom   16 type  1   force =     0.01396229   -0.04419227   -0.08398428
     The ionic contribution  to forces
     atom    1 type  2   force =    -1.13251781   -1.13251781   -1.13251781
     atom    2 type  2   force =     1.13251781    1.13251781   -1.13251781
     atom    3 type  2   force =     1.13251781   -1.13251781    1.13251781
     atom    4 type  2   force =    -1.13251781    1.13251781    1.13251781
     atom    5 type  1   force =     2.20971911    0.39301217   -1.02697561
     atom    6 type  1   force =    -2.20971911   -0.39301217   -1.02697561
     atom    7 type  1   force =    -2.20971911    0.39301217    1.02697561
     atom    8 type  1   force =     2.20971911   -0.39301217    1.02697561
     atom    9 type  1   force =    -1.02697561    2.20971911    0.39301217
     atom   10 type  1   force =    -1.02697561   -2.20971911   -0.39301217
     atom   11 type  1   force =     1.02697561   -2.20971911    0.39301217
     atom   12 type  1   force =     1.02697561    2.20971911   -0.39301217
     atom   13 type  1   force =     0.39301217   -1.02697561    2.20971911
     atom   14 type  1   force =    -0.39301217   -1.02697561   -2.20971911
     atom   15 type  1   force =     0.39301217    1.02697561   -2.20971911
     atom   16 type  1   force =    -0.39301217    1.02697561    2.20971911
     The local contribution  to forces
     atom    1 type  2   force =     0.45483045    0.45483045    0.45483045
     atom    2 type  2   force =    -0.45483045   -0.45483045    0.45483045
     atom    3 type  2   force =    -0.45483045    0.45483045   -0.45483045
     atom    4 type  2   force =     0.45483045   -0.45483045   -0.45483045
     atom    5 type  1   force =    -2.11868590   -0.37378681    0.97998970
     atom    6 type  1   force =     2.11868590    0.37378681    0.97998970
     atom    7 type  1   force =     2.11868590   -0.37378681   -0.97998970
     atom    8 type  1   force =    -2.11868590    0.37378681   -0.97998970
     atom    9 type  1   force =     0.97998970   -2.11868590   -0.37378681
     atom   10 type  1   force =     0.97998970    2.11868590    0.37378681
     atom   11 type  1   force =    -0.97998970    2.11868590   -0.37378681
     atom   12 type  1   force =    -0.97998970   -2.11868590    0.37378681
     atom   13 type  1   force =    -0.37378681    0.97998970   -2.11868590
     atom   14 type  1   force =     0.37378681    0.97998970    2.11868590
     atom   15 type  1   force =    -0.37378681   -0.97998970    2.11868590
     atom   16 type  1   force =     0.37378681   -0.97998970   -2.11868590
     The core correction contribution to forces
     atom    1 type  2   force =    -0.00939615   -0.00939615   -0.00939615
     atom    2 type  2   force =     0.00939615    0.00939615   -0.00939615
     atom    3 type  2   force =     0.00939615   -0.00939615    0.00939615
     atom    4 type  2   force =    -0.00939615    0.00939615    0.00939615
     atom    5 type  1   force =     0.00000000    0.00000000    0.00000000
     atom    6 type  1   force =     0.00000000    0.00000000    0.00000000
     atom    7 type  1   force =     0.00000000    0.00000000    0.00000000
     atom    8 type  1   force =     0.00000000    0.00000000    0.00000000
     atom    9 type  1   force =     0.00000000    0.00000000    0.00000000
     atom   10 type  1   force =     0.00000000    0.00000000    0.00000000
     atom   11 type  1   force =     0.00000000    0.00000000    0.00000000
     atom   12 type  1   force =     0.00000000    0.00000000    0.00000000
     atom   13 type  1   force =     0.00000000    0.00000000    0.00000000
     atom   14 type  1   force =     0.00000000    0.00000000    0.00000000
     atom   15 type  1   force =     0.00000000    0.00000000    0.00000000
     atom   16 type  1   force =     0.00000000    0.00000000    0.00000000
     The Hubbard contrib.    to forces
     atom    1 type  2   force =     0.00000000    0.00000000    0.00000000
     atom    2 type  2   force =     0.00000000    0.00000000    0.00000000
     atom    3 type  2   force =     0.00000000    0.00000000    0.00000000
     atom    4 type  2   force =     0.00000000    0.00000000    0.00000000
     atom    5 type  1   force =     0.00000000    0.00000000    0.00000000
     atom    6 type  1   force =     0.00000000    0.00000000    0.00000000
     atom    7 type  1   force =     0.00000000    0.00000000    0.00000000
     atom    8 type  1   force =     0.00000000    0.00000000    0.00000000
[...]
    -6.7115  -6.6749  -6.5072  -6.4689  -2.5609  -2.5513  -2.0359  -2.0208
     4.9510   5.4945   5.5722   5.9876

     occupation numbers 
     1.0000   1.0000   1.0000   1.0000   1.0000   1.0000   1.0000   1.0000
     1.0000   1.0000   1.0000   1.0000   1.0000   1.0000   1.0000   1.0000
     0.0000   0.0000   0.0000   0.0000

          k = 0.2862 0.2862 0.2862 (  7331 PWs)   bands (ev):

   -17.0805 -16.8880 -16.7785 -16.7170  -7.6414  -7.6154  -7.4482  -7.2007
    -6.7837  -6.6283  -6.5656  -6.3896  -2.5633  -2.5166  -2.0713  -1.9904
     4.1987   5.6503   5.9769   6.2230

     occupation numbers 
     1.0000   1.0000   1.0000   1.0000   1.0000   1.0000   1.0000   1.0000
     1.0000   1.0000   1.0000   1.0000   1.0000   1.0000   1.0000   1.0000
     0.0000   0.0000   0.0000   0.0000

          k = 0.2862 0.2862 0.4293 (  7361 PWs)   bands (ev):

   -17.0067 -16.9312 -16.7764 -16.7485  -7.6534  -7.6427  -7.4454  -7.3507
    -6.6901  -6.6193  -6.4859  -6.4101  -2.5279  -2.5055  -2.0574  -2.0308
     4.6724   5.2641   5.9106   6.0484

     occupation numbers 
     1.0000   1.0000   1.0000   1.0000   1.0000   1.0000   1.0000   1.0000
     1.0000   1.0000   1.0000   1.0000   1.0000   1.0000   1.0000   1.0000
     0.0000   0.0000   0.0000   0.0000

          k = 0.2862 0.4293 0.4293 (  7346 PWs)   bands (ev):

   -16.9551 -16.9207 -16.8004 -16.7834  -7.6684  -7.6619  -7.5133  -7.4731
    -6.5905  -6.5482  -6.4539  -6.4105  -2.4699  -2.4590  -2.0730  -2.0649
     4.9951   5.4242   5.4618   5.6971

     occupation numbers 
     1.0000   1.0000   1.0000   1.0000   1.0000   1.0000   1.0000   1.0000
     1.0000   1.0000   1.0000   1.0000   1.0000   1.0000   1.0000   1.0000
     0.0000   0.0000   0.0000   0.0000

          k = 0.4293 0.4293 0.4293 (  7355 PWs)   bands (ev):

   -16.9125 -16.8927 -16.8312 -16.8180  -7.6904  -7.6857  -7.6096  -7.5896
    -6.4902  -6.4559  -6.4253  -6.3908  -2.3618  -2.3555  -2.1340  -2.1330
     5.1242   5.3588   5.3712   5.3743

     occupation numbers 
     1.0000   1.0000   1.0000   1.0000   1.0000   1.0000   1.0000   1.0000
     1.0000   1.0000   1.0000   1.0000   1.0000   1.0000   1.0000   1.0000
     0.0000   0.0000   0.0000   0.0000

          k = 0.0000 0.2862 0.1431 (  7325 PWs)   bands (ev):

   -17.2136 -16.8713 -16.7126 -16.6666  -7.6033  -7.5744  -7.3922  -6.9384
    -6.8250  -6.7354  -6.6640  -6.4631  -2.5582  -2.5300  -2.1340  -1.9028
     3.3708   5.4063   6.3290   6.4524

     occupation numbers 
     1.0000   1.0000   1.0000   1.0000   1.0000   1.0000   1.0000   1.0000
     1.0000   1.0000   1.0000   1.0000   1.0000   1.0000   1.0000   1.0000
     0.0000   0.0000   0.0000   0.0000

          k = 0.0000 0.4293 0.1431 (  7354 PWs)   bands (ev):

   -17.1074 -16.9855 -16.6963 -16.6786  -7.5856  -7.5671  -7.2511  -7.0851
    -6.8397  -6.7793  -6.5986  -6.5145  -2.6007  -2.5858  -2.0585  -1.9797
     4.0805   4.8271   6.7590   6.7940

     occupation numbers 
     1.0000   1.0000   1.0000   1.0000   1.0000   1.0000   1.0000   1.0000
     1.0000   1.0000   1.0000   1.0000   1.0000   1.0000   1.0000   1.0000
     0.0000   0.0000   0.0000   0.0000

          k = 0.0000 0.4293 0.2862 (  7340 PWs)   bands (ev):

   -17.0604 -16.9628 -16.7360 -16.7092  -7.5931  -7.5705  -7.2960  -7.1604
    -6.8237  -6.7521  -6.5709  -6.4922  -2.6004  -2.5830  -2.0439  -1.9919
     4.4170   5.0950   6.3464   6.7433

     occupation numbers 
     1.0000   1.0000   1.0000   1.0000   1.0000   1.0000   1.0000   1.0000
     1.0000   1.0000   1.0000   1.0000   1.0000   1.0000   1.0000   1.0000
     0.0000   0.0000   0.0000   0.0000

          k =-0.1431 0.4293 0.2862 (  7349 PWs)   bands (ev):

   -17.0460 -16.9535 -16.7471 -16.7200  -7.6174  -7.5962  -7.3441  -7.2183
    -6.7857  -6.7152  -6.5363  -6.4574  -2.5809  -2.5602  -2.0463  -2.0018
     4.4803   5.1402   6.2237   6.5254

     occupation numbers 
     1.0000   1.0000   1.0000   1.0000   1.0000   1.0000   1.0000   1.0000
     1.0000   1.0000   1.0000   1.0000   1.0000   1.0000   1.0000   1.0000
     0.0000   0.0000   0.0000   0.0000

     the Fermi energy is     0.0394 ev

!    total energy              =     -96.23521335 Ry
     estimated scf accuracy    <          4.3E-12 Ry
     smearing contrib. (-TS)   =       0.00000000 Ry
     internal energy E=F+TS    =     -96.23521335 Ry

     The total energy is F=E-TS. E is the sum of the following terms:
     one-electron contribution =     -62.11191726 Ry
     hartree contribution      =      40.33239760 Ry
     xc contribution           =     -31.66722647 Ry
     ewald contribution        =     -42.78846721 Ry

     convergence has been achieved in  15 iterations

     Forces acting on atoms (cartesian axes, Ry/au):

     atom    1 type  2   force =     0.00000266    0.00000266    0.00000266
     atom    2 type  2   force =    -0.00000266   -0.00000266    0.00000266
     atom    3 type  2   force =    -0.00000266    0.00000266   -0.00000266
     atom    4 type  2   force =     0.00000266   -0.00000266   -0.00000266
     atom    5 type  1   force =    -0.00000117    0.00000940    0.00000223
     atom    6 type  1   force =     0.00000117   -0.00000940    0.00000223
     atom    7 type  1   force =     0.00000117    0.00000940   -0.00000223
     atom    8 type  1   force =    -0.00000117   -0.00000940   -0.00000223
     atom    9 type  1   force =     0.00000223   -0.00000117    0.00000940
     atom   10 type  1   force =     0.00000223    0.00000117   -0.00000940
     atom   11 type  1   force =    -0.00000223    0.00000117    0.00000940
     atom   12 type  1   force =    -0.00000223   -0.00000117   -0.00000940
     atom   13 type  1   force =     0.00000940    0.00000223   -0.00000117
     atom   14 type  1   force =    -0.00000940    0.00000223    0.00000117
     atom   15 type  1   force =     0.00000940   -0.00000223    0.00000117
     atom   16 type  1   force =    -0.00000940   -0.00000223   -0.00000117
     The non-local contrib.  to forces
     atom    1 type  2   force =     0.70036560    0.70036560    0.70036560
     atom    2 type  2   force =    -0.70036560   -0.70036560    0.70036560
     atom    3 type  2   force =    -0.70036560    0.70036560   -0.70036560
     atom    4 type  2   force =     0.70036560   -0.70036560   -0.70036560
     atom    5 type  1   force =    -0.07207659   -0.03360002    0.04922730
     atom    6 type  1   force =     0.07207659    0.03360002    0.04922730
     atom    7 type  1   force =     0.07207659   -0.03360002   -0.04922730
     atom    8 type  1   force =    -0.07207659    0.03360002   -0.04922730
     atom    9 type  1   force =     0.04922730   -0.07207659   -0.03360002
     atom   10 type  1   force =     0.04922730    0.07207659    0.03360002
     atom   11 type  1   force =    -0.04922730    0.07207659   -0.03360002
     atom   12 type  1   force =    -0.04922730   -0.07207659    0.03360002
     atom   13 type  1   force =    -0.03360002    0.04922730   -0.07207659
     atom   14 type  1   force =     0.03360002    0.04922730    0.07207659
     atom   15 type  1   force =    -0.03360002   -0.04922730    0.07207659
     atom   16 type  1   force =     0.03360002   -0.04922730   -0.07207659
     The ionic contribution  to forces
     atom    1 type  2   force =    -1.12218573   -1.12218573   -1.12218573
     atom    2 type  2   force =     1.12218573    1.12218573   -1.12218573
     atom    3 type  2   force =     1.12218573   -1.12218573    1.12218573
     atom    4 type  2   force =    -1.12218573    1.12218573    1.12218573
     atom    5 type  1   force =     1.86115973    0.96404061   -1.17107556
     atom    6 type  1   force =    -1.86115973   -0.96404061   -1.17107556
     atom    7 type  1   force =    -1.86115973    0.96404061    1.17107556
     atom    8 type  1   force =     1.86115973   -0.96404061    1.17107556
     atom    9 type  1   force =    -1.17107556    1.86115973    0.96404061
     atom   10 type  1   force =    -1.17107556   -1.86115973   -0.96404061
     atom   11 type  1   force =     1.17107556   -1.86115973    0.96404061
     atom   12 type  1   force =     1.17107556    1.86115973   -0.96404061
     atom   13 type  1   force =     0.96404061   -1.17107556    1.86115973
     atom   14 type  1   force =    -0.96404061   -1.17107556   -1.86115973
     atom   15 type  1   force =     0.96404061    1.17107556   -1.86115973
     atom   16 type  1   force =    -0.96404061    1.17107556    1.86115973
     The local contribution  to forces
     atom    1 type  2   force =     0.43157955    0.43157955    0.43157955
     atom    2 type  2   force =    -0.43157955   -0.43157955    0.43157955
     atom    3 type  2   force =    -0.43157955    0.43157955   -0.43157955
     atom    4 type  2   force =     0.43157955   -0.43157955   -0.43157955
     atom    5 type  1   force =    -1.78908450   -0.93043130    1.12185055
     atom    6 type  1   force =     1.78908450    0.93043130    1.12185055
     atom    7 type  1   force =     1.78908450   -0.93043130   -1.12185055
     atom    8 type  1   force =    -1.78908450    0.93043130   -1.12185055
     atom    9 type  1   force =     1.12185055   -1.78908450   -0.93043130
     atom   10 type  1   force =     1.12185055    1.78908450    0.93043130
     atom   11 type  1   force =    -1.12185055    1.78908450   -0.93043130
     atom   12 type  1   force =    -1.12185055   -1.78908450    0.93043130
     atom   13 type  1   force =    -0.93043130    1.12185055   -1.78908450
     atom   14 type  1   force =     0.93043130    1.12185055    1.78908450
     atom   15 type  1   force =    -0.93043130   -1.12185055    1.78908450
     atom   16 type  1   force =     0.93043130   -1.12185055   -1.78908450
     The core correction contribution to forces
     atom    1 type  2   force =    -0.00975723   -0.00975723   -0.00975723
     atom    2 type  2   force =     0.00975723    0.00975723   -0.00975723
     atom    3 type  2   force =     0.00975723   -0.00975723    0.00975723
     atom    4 type  2   force =    -0.00975723    0.00975723    0.00975723
     atom    5 type  1   force =     0.00000000    0.00000000    0.00000000
     atom    6 type  1   force =     0.00000000    0.00000000    0.00000000
     atom    7 type  1   force =     0.00000000    0.00000000    0.00000000
     atom    8 type  1   force =     0.00000000    0.00000000    0.00000000
     atom    9 type  1   force =     0.00000000    0.00000000    0.00000000
     atom   10 type  1   force =     0.00000000    0.00000000    0.00000000
     atom   11 type  1   force =     0.00000000    0.00000000    0.00000000
     atom   12 type  1   force =     0.00000000    0.00000000    0.00000000
     atom   13 type  1   force =     0.00000000    0.00000000    0.00000000
     atom   14 type  1   force =     0.00000000    0.00000000    0.00000000
     atom   15 type  1   force =     0.00000000    0.00000000    0.00000000
     atom   16 type  1   force =     0.00000000    0.00000000    0.00000000
     The Hubbard contrib.    to forces
     atom    1 type  2   force =     0.00000000    0.00000000    0.00000000
     atom    2 type  2   force =     0.00000000    0.00000000    0.00000000
     atom    3 type  2   force =     0.00000000    0.00000000    0.00000000
     atom    4 type  2   force =     0.00000000    0.00000000    0.00000000
     atom    5 type  1   force =     0.00000000    0.00000000    0.00000000
     atom    6 type  1   force =     0.00000000    0.00000000    0.00000000
     atom    7 type  1   force =     0.00000000    0.00000000    0.00000000
     atom    8 type  1   force =     0.00000000    0.00000000    0.00000000
     atom    9 type  1   force =     0.00000000    0.00000000    0.00000000
     atom   10 type  1   force =     0.00000000    0.00000000    0.00000000
     atom   11 type  1   force =     0.00000000    0.00000000    0.00000000
     atom   12 type  1   force =     0.00000000    0.00000000    0.00000000
     atom   13 type  1   force =     0.00000000    0.00000000    0.00000000
     atom   14 type  1   force =     0.00000000    0.00000000    0.00000000
     atom   15 type  1   force =     0.00000000    0.00000000    0.00000000
     atom   16 type  1   force =     0.00000000    0.00000000    0.00000000
     The SCF correction term to forces
     atom    1 type  2   force =     0.00000046    0.00000046    0.00000046
     atom    2 type  2   force =    -0.00000046   -0.00000046    0.00000046
     atom    3 type  2   force =    -0.00000046    0.00000046   -0.00000046
     atom    4 type  2   force =     0.00000046   -0.00000046   -0.00000046
     atom    5 type  1   force =     0.00000019    0.00000012   -0.00000007
     atom    6 type  1   force =    -0.00000019   -0.00000012   -0.00000007
     atom    7 type  1   force =    -0.00000019    0.00000012    0.00000007
     atom    8 type  1   force =     0.00000019   -0.00000012    0.00000007
     atom    9 type  1   force =    -0.00000007    0.00000019    0.00000012
     atom   10 type  1   force =    -0.00000007   -0.00000019   -0.00000012
     atom   11 type  1   force =     0.00000007   -0.00000019    0.00000012
     atom   12 type  1   force =     0.00000007    0.00000019   -0.00000012
     atom   13 type  1   force =     0.00000012   -0.00000007    0.00000019
     atom   14 type  1   force =    -0.00000012   -0.00000007   -0.00000019
     atom   15 type  1   force =     0.00000012    0.00000007   -0.00000019
     atom   16 type  1   force =    -0.00000012    0.00000007    0.00000019

     Total force =     0.000035     Total SCF correction =     0.000002


     Computing stress (Cartesian axis) and pressure

          total   stress  (Ry/bohr**3)                   (kbar)     P=        0.02
   0.00000013   0.00000000   0.00000000            0.02        0.00        0.00
   0.00000000   0.00000013   0.00000000            0.00        0.02        0.00
   0.00000000   0.00000000   0.00000013            0.00        0.00        0.02

     kinetic stress (kbar)   6385.75      0.00      0.00
                                0.00   6385.75      0.00
                                0.00      0.00   6385.75

     local   stress (kbar)  -4707.21     -0.00     -0.00
                               -0.00  -4707.21     -0.00
                               -0.00     -0.00  -4707.21

     nonloc. stress (kbar)    -26.75      0.00      0.00
                                0.00    -26.75      0.00
                                0.00      0.00    -26.75

     hartree stress (kbar)   2113.82      0.00     -0.00
                                0.00   2113.82     -0.00
                               -0.00     -0.00   2113.82

     exc-cor stress (kbar)  -1092.20      0.00      0.00
                                0.00  -1092.20      0.00
                                0.00      0.00  -1092.20

     corecor stress (kbar)   -430.85     -0.00     -0.00
                               -0.00   -430.85     -0.00
                               -0.00     -0.00   -430.85

     ewald   stress (kbar)  -2242.54      0.00      0.00
                                0.00  -2242.54      0.00
                                0.00      0.00  -2242.54

     hubbard stress (kbar)      0.00      0.00      0.00
                                0.00      0.00      0.00
                                0.00      0.00      0.00

     DFT-D   stress (kbar)      0.00      0.00      0.00
                                0.00      0.00      0.00
                                0.00      0.00      0.00

     XDM     stress (kbar)      0.00      0.00      0.00
                                0.00      0.00      0.00
                                0.00      0.00      0.00

     dft-nl  stress (kbar)      0.00      0.00      0.00
                                0.00      0.00      0.00
                                0.00      0.00      0.00

     TS-vdW  stress (kbar)      0.00      0.00      0.00
                                0.00      0.00      0.00
                                0.00      0.00      0.00

     MDB     stress (kbar)      0.00      0.00      0.00
                                0.00      0.00      0.00
                                0.00      0.00      0.00

     3D-RISM stress (kbar)      0.00      0.00      0.00
                                0.00      0.00      0.00
                                0.00      0.00      0.00


     Writing all to output data dir ./out/AC_Ph_1.save/

     init_run     :      7.86s CPU      7.93s WALL (       2 calls)
     electrons    :   1298.08s CPU   1315.12s WALL (      35 calls)
     update_pot   :     92.61s CPU     92.81s WALL (      33 calls)
     forces       :     74.51s CPU     74.93s WALL (      35 calls)
     stress       :    126.65s CPU    126.98s WALL (      35 calls)

     Called by init_run:
     wfcinit      :      2.55s CPU      2.57s WALL (       2 calls)
     wfcinit:atom :      0.03s CPU      0.03s WALL (      48 calls)
     wfcinit:wfcr :      2.44s CPU      2.45s WALL (      48 calls)
     potinit      :      2.05s CPU      2.07s WALL (       2 calls)
     hinit0       :      2.55s CPU      2.56s WALL (       2 calls)

     Called by electrons:
     c_bands      :   1085.38s CPU   1097.62s WALL (     411 calls)
     sum_band     :    168.31s CPU    171.07s WALL (     411 calls)
     v_of_rho     :     22.35s CPU     23.41s WALL (     444 calls)
     v_h          :      1.38s CPU      1.52s WALL (     444 calls)
     v_xc         :     24.28s CPU     25.36s WALL (     514 calls)
     newd         :     19.22s CPU     19.45s WALL (     444 calls)
     mix_rho      :      3.34s CPU      3.56s WALL (     411 calls)

     Called by c_bands:
     init_us_2    :     10.48s CPU     10.56s WALL (   21456 calls)
     init_us_2:cp :     10.37s CPU     10.50s WALL (   21456 calls)
     cegterg      :   1064.86s CPU   1076.75s WALL (    9864 calls)

     Called by sum_band:
     sum_band:wei :      0.06s CPU      0.07s WALL (     411 calls)
     sum_band:loo :    146.69s CPU    149.09s WALL (     411 calls)
     sum_band:buf :      1.13s CPU      1.15s WALL (    9864 calls)
     sum_band:ini :      4.73s CPU      4.75s WALL (    9864 calls)
     sum_band:cal :     48.49s CPU     49.34s WALL (    9864 calls)
     sum_band:bec :      0.34s CPU      0.34s WALL (    9864 calls)
     addusdens    :     16.39s CPU     16.47s WALL (     411 calls)
     addusd:skk   :      1.07s CPU      1.08s WALL (     822 calls)
     addusd:dgemm :      8.64s CPU      8.67s WALL (     822 calls)
     addusd:qvan2 :      4.74s CPU      4.75s WALL (     822 calls)

     Called by *egterg:
     cdiaghg      :     34.09s CPU     34.21s WALL (   29978 calls)
     cegterg:over :    122.37s CPU    123.53s WALL (   20954 calls)
     cegterg:upda :     30.26s CPU     30.33s WALL (   20954 calls)
     cegterg:last :     66.71s CPU     66.88s WALL (   19373 calls)
     h_psi        :    678.85s CPU    688.80s WALL (   30866 calls)
     s_psi        :     65.44s CPU     65.65s WALL (   30866 calls)
     g_psi        :      4.37s CPU      4.39s WALL (   20954 calls)

     Called by h_psi:
     h_psi:calbec :    129.81s CPU    132.31s WALL (   30866 calls)
     vloc_psi     :    480.48s CPU    487.74s WALL (   30866 calls)
     add_vuspsi   :     65.67s CPU     65.87s WALL (   30866 calls)

     General routines
     calbec       :    201.01s CPU    204.67s WALL (   44930 calls)
     fft          :     22.36s CPU     23.65s WALL (    6612 calls)
     ffts         :      0.71s CPU      0.75s WALL (     855 calls)
     fftw         :    522.04s CPU    529.24s WALL ( 1250838 calls)
     interpolate  :      1.51s CPU      1.62s WALL (     444 calls)

     Parallel routines

     PWSCF        :  26m43.92s CPU  27m 2.28s WALL


   This run was terminated on:   6:24: 7  14Dec2022            

=------------------------------------------------------------------------------=
   JOB DONE.
=------------------------------------------------------------------------------=
